 vasp.5.4.1 05Feb16 (build Mar 22 2018 17:28:22) complex                        
  
 executed on           IFC91_ompi date 2018.03.22  18:56:28
 running on    4 total cores
 distrk:  each k-point on    4 cores,    1 groups
 distr:  one band on NCORES_PER_BAND=   2 cores,    2 groups


--------------------------------------------------------------------------------------------------------


 INCAR:
 POTCAR:    PAW_PBE Ta_pv 07Sep2000               
