 vasp.5.4.4.18Apr17-6-g9f103f2a35 (build Mar 20 2018 01:39:24) complex          
  
 executed on             LinuxIFC date 2018.03.20  21:43:57
 running on   16 total cores
 distrk:  each k-point on   16 cores,    1 groups
 distr:  one band on NCORES_PER_BAND=   2 cores,    8 groups


--------------------------------------------------------------------------------------------------------


 INCAR:
 POTCAR:    PAW_PBE Ta_pv 07Sep2000               
 POTCAR:    PAW_PBE Ta_pv 07Sep2000               
  local pseudopotential read in
  partial core-charges read in
  partial kinetic energy density read in
  atomic valenz-charges read in
  non local Contribution for L=           1  read in
    real space projection operators read in
  non local Contribution for L=           1  read in
    real space projection operators read in
  non local Contribution for L=           2  read in
    real space projection operators read in
  non local Contribution for L=           2  read in
    real space projection operators read in
  non local Contribution for L=           0  read in
    real space projection operators read in
  non local Contribution for L=           0  read in
    real space projection operators read in
    PAW grid and wavefunctions read in
 
   number of l-projection  operators is LMAX  =           6
   number of lm-projection operators is LMMAX =          18
 
 Optimization of the real space projectors (new method)

 maximal supplied QI-value         = 15.12
 optimisation between [QCUT,QGAM] = [  8.01, 16.18] = [ 17.98, 73.27] Ry 
 Optimized for a Real-space Cutoff    1.97 Angstroem

   l    n(q)    QCUT    max X(q) W(low)/X(q) W(high)/X(q)  e(spline) 
   1      9     8.012     4.092    0.32E-05    0.18E-04    0.62E-07
   1      9     8.012     4.834    0.61E-04    0.95E-04    0.17E-06
   2      9     8.012    48.542    0.34E-03    0.87E-03    0.29E-06
   2      9     8.012    39.478    0.34E-03    0.87E-03    0.29E-06
   0     10     8.012   103.792    0.37E-04    0.35E-04    0.14E-06
   0     10     8.012    56.335    0.33E-04    0.33E-04    0.12E-06
  PAW_PBE Ta_pv 07Sep2000               :
 energy of atom  1       EATOM=-1047.1984
 kinetic energy error for atom=    0.0394 (will be added to EATOM!!)
 
 
 POSCAR: Ta                                      
  positions in direct lattice
  velocities in cartesian coordinates
 exchange correlation table for  LEXCH =        8
   RHO(1)=    0.500       N(1)  =     2000
   RHO(2)=  100.500       N(2)  =     4000
 


--------------------------------------------------------------------------------------------------------


 ion  position               nearest neighbor table
   1  0.000  0.000  0.000-  50 2.71 104 2.71  62 2.75  77 2.75  59 2.75 107 2.75  53 2.83 109 2.83
                            87 3.14  67 3.14  40 3.21  90 3.21  96 3.21 143 3.21
   2  0.667  0.833  0.333-  60 2.71   8 2.71  10 2.75  52 2.75   4 2.75  39 2.75  38 2.83 110 2.83
                            24 3.14  44 3.14  16 3.21  46 3.21   3 3.21  40 3.21
   3  0.500  0.750  0.167-   4 2.71 113 2.71  13 2.75 122 2.75   8 2.75 110 2.75  39 2.83 111 2.83
                             5 3.14 112 3.14 121 3.21  14 3.21   2 3.21 116 3.21
   4  0.583  0.917  0.167-   3 2.71  23 2.71  14 2.75  71 2.75   2 2.75  24 2.75  40 2.83 112 2.83
                            39 3.14 132 3.14  53 3.21 122 3.21  60 3.21 110 3.21
   5  0.667  0.583  0.167-  39 2.71  22 2.71  13 2.75  54 2.75   8 2.75  42 2.75  41 2.83 113 2.83
                             3 3.14  58 3.14  18 3.21  49 3.21   6 3.21  44 3.21
   6  0.500  0.500  0.333-   8 2.71 129 2.71 119 2.75  28 2.75  22 2.75 113 2.75  42 2.83 114 2.83
                            20 3.14 116 3.14  11 3.21 137 3.21 131 3.21   5 3.21
   7  0.583  0.667  0.667-  12 2.71   9 2.71  11 2.75  16 2.75  36 2.75  15 2.75  43 2.83 115 2.83
                            48 3.14 117 3.14  52 3.21 119 3.21  51 3.21  72 3.21
   8  0.583  0.667  0.333-   6 2.71   2 2.71  11 2.75  16 2.75   5 2.75   3 2.75  44 2.83 116 2.83
                            42 3.14 110 3.14  52 3.21 119 3.21  39 3.21 113 3.21
   9  0.667  0.833  0.667-  66 2.71   7 2.71  10 2.75  52 2.75  17 2.75  51 2.75  45 2.83 117 2.83
                            30 3.14  43 3.14  16 3.21  46 3.21  15 3.21 143 3.21
  10  0.583  0.917  0.500-  16 2.71  29 2.71   2 2.75   9 2.75  24 2.75  30 2.75  46 2.83 118 2.83
                            52 3.14 138 3.14  60 3.21  66 3.21 110 3.21 117 3.21
  11  0.667  0.583  0.500-  52 2.71  28 2.71   7 2.75   8 2.75  48 2.75  42 2.75  47 2.83 119 2.83
                            16 3.14  64 3.14   6 3.21  12 3.21  44 3.21  43 3.21
  12  0.500  0.500  0.667-   7 2.71 135 2.71 119 2.75  28 2.75  19 2.75  72 2.75 120 2.83  48 2.83
                           115 3.14  27 3.14  11 3.21 137 3.21  36 3.21 127 3.21
  13  0.583  0.667  0.000-  18 2.71  14 2.71   5 2.75  36 2.75   3 2.75  15 2.75  49 2.83 121 2.83
                            54 3.14 122 3.14  51 3.21  39 3.21  72 3.21 113 3.21
  14  0.667  0.833  0.000-  53 2.71  13 2.71  17 2.75   4 2.75  51 2.75  39 2.75  50 2.83 122 2.83
                            71 3.14  49 3.14   3 3.21  15 3.21  40 3.21 143 3.21
  15  0.500  0.750  0.833-  17 2.71  72 2.71  13 2.75 122 2.75 117 2.75   7 2.75  51 2.83 123 2.83
                            73 3.14  36 3.14  14 3.21 121 3.21   9 3.21 115 3.21
  16  0.500  0.750  0.500-  10 2.71 119 2.71   7 2.75 110 2.75 117 2.75   8 2.75  52 2.83 124 2.83
                            11 3.14 118 3.14   2 3.21   9 3.21 115 3.21 116 3.21
  17  0.583  0.917  0.833-  15 2.71  26 2.71  14 2.75  71 2.75   9 2.75  30 2.75  73 2.83 143 2.83
                            51 3.14 126 3.14  53 3.21 122 3.21  66 3.21 117 3.21
  18  0.500  0.500  0.000-  13 2.71 141 2.71  22 2.75  72 2.75 113 2.75  19 2.75 125 2.83  54 2.83
                            32 3.14 121 3.14   5 3.21 127 3.21 131 3.21  36 3.21
  19  0.583  0.417  0.833-  33 2.71  36 2.71  32 2.75  18 2.75  27 2.75  12 2.75  55 2.83 127 2.83
                            69 3.14  72 3.14  54 3.21 141 3.21  48 3.21 135 3.21
  20  0.667  0.333  0.333-  42 2.71  35 2.71  28 2.75  70 2.75  22 2.75  57 2.75  56 2.83 129 2.83
                             6 3.14  37 3.14  34 3.21  64 3.21  21 3.21  58 3.21
  21  0.500  0.250  0.167-  22 2.71 132 2.71  31 2.75 141 2.75  35 2.75 129 2.75  57 2.83 130 2.83
                            23 3.14 131 3.14 140 3.21  32 3.21  20 3.21 128 3.21
  22  0.583  0.417  0.167-  21 2.71   5 2.71  32 2.75  18 2.75  20 2.75   6 2.75  58 2.83 131 2.83
                            57 3.14 113 3.14  54 3.21 141 3.21  42 3.21 129 3.21
  23  0.667  0.083  0.167-  57 2.71   4 2.71  31 2.75  53 2.75  35 2.75  60 2.75  59 2.83 132 2.83
                            21 3.14  40 3.14  71 3.21  67 3.21  24 3.21  37 3.21
  24  0.500  0.000  0.333-  35 2.71 110 2.71  10 2.75 138 2.75 132 2.75   4 2.75 133 2.83  60 2.83
                           128 3.14   2 3.14  29 3.21 118 3.21 112 3.21  23 3.21
  25  0.583  0.167  0.667-  30 2.71  27 2.71  29 2.75  34 2.75  26 2.75  33 2.75  61 2.83 134 2.83
                            66 3.14 135 3.14  70 3.21 138 3.21  69 3.21 126 3.21
  26  0.667  0.083  0.833-  69 2.71  17 2.71  31 2.75  53 2.75  25 2.75  66 2.75  62 2.83 126 2.83
                            33 3.14 143 3.14  71 3.21  67 3.21  30 3.21  61 3.21
  27  0.667  0.333  0.667-  48 2.71  25 2.71  28 2.75  70 2.75  19 2.75  69 2.75  63 2.83 135 2.83
                            12 3.14  61 3.14  34 3.21  64 3.21  33 3.21  55 3.21
  28  0.583  0.417  0.500-  34 2.71  11 2.71  27 2.75  20 2.75  12 2.75   6 2.75  64 2.83 137 2.83
                            70 3.14 119 3.14  42 3.21  48 3.21 135 3.21 129 3.21
  29  0.667  0.083  0.500-  70 2.71  10 2.71  35 2.75  25 2.75  66 2.75  60 2.75  65 2.83 138 2.83
                            34 3.14  46 3.14  24 3.21  30 3.21  37 3.21  61 3.21
  30  0.500  0.000  0.667-  25 2.71 117 2.71  10 2.75 138 2.75 126 2.75  17 2.75  66 2.83 139 2.83
                             9 3.14 134 3.14  29 3.21 118 3.21  26 3.21  73 3.21
  31  0.583  0.167  0.000-  71 2.71  32 2.71  23 2.75  26 2.75  33 2.75  21 2.75  67 2.83 140 2.83
                            53 3.14 141 3.14  69 3.21  57 3.21 126 3.21 132 3.21
  32  0.667  0.333  0.000-  54 2.71  31 2.71  19 2.75  22 2.75  57 2.75  69 2.75  68 2.83 141 2.83
                            18 3.14  67 3.14  21 3.21  33 3.21  55 3.21  58 3.21
  33  0.500  0.250  0.833-  19 2.71 126 2.71  31 2.75 141 2.75 135 2.75  25 2.75  69 2.83 142 2.83
                           127 3.14  26 3.14  32 3.21 140 3.21  27 3.21 134 3.21
  34  0.500  0.250  0.500-  28 2.71 138 2.71  35 2.75 129 2.75 135 2.75  25 2.75 136 2.83  70 2.83
                           137 3.14  29 3.14  27 3.21 128 3.21  20 3.21 134 3.21
  35  0.583  0.167  0.333-  24 2.71  20 2.71  29 2.75  34 2.75  23 2.75  21 2.75  37 2.83 128 2.83
                            60 3.14 129 3.14  70 3.21 138 3.21  57 3.21 132 3.21
  36  0.667  0.583  0.833-  51 2.71  19 2.71  13 2.75  54 2.75   7 2.75  48 2.75  72 2.83 144 2.83
                            15 3.14  55 3.14  18 3.21  49 3.21  12 3.21  43 3.21
  37  0.833  0.167  0.333-  60 2.71  56 2.71  65 2.75  70 2.75  59 2.75  57 2.75  35 2.83  92 2.83
                            97 3.14  20 3.14 100 3.21  29 3.21  94 3.21  23 3.21
  38  0.917  0.833  0.333-  97 2.71  44 2.71  46 2.75  82 2.75  40 2.75  76 2.75  75 2.83   2 2.83
                            60 3.14  74 3.14  52 3.21  83 3.21  39 3.21  77 3.21
  39  0.750  0.750  0.167-   5 2.71  40 2.71  14 2.75  49 2.75  44 2.75   2 2.75   3 2.83  76 2.83
                            41 3.14   4 3.14  50 3.21  13 3.21   8 3.21  38 3.21
  40  0.833  0.917  0.167-  39 2.71  59 2.71  50 2.75  53 2.75  38 2.75  60 2.75   4 2.83  77 2.83
                            76 3.14  23 3.14   1 3.21  14 3.21  97 3.21   2 3.21
  41  0.917  0.583  0.167-  76 2.71  58 2.71  49 2.75  80 2.75  44 2.75  79 2.75   5 2.83  78 2.83
                            39 3.14  95 3.14  54 3.21  86 3.21  42 3.21  74 3.21
  42  0.750  0.500  0.333-  20 2.71  44 2.71  11 2.75  64 2.75  58 2.75   5 2.75   6 2.83  79 2.83
                            56 3.14   8 3.14  28 3.21  47 3.21  22 3.21  41 3.21
  43  0.833  0.667  0.667-  48 2.71  45 2.71  47 2.75  52 2.75 144 2.75  51 2.75  81 2.83   7 2.83
                            85 3.14   9 3.14  82 3.21  11 3.21  89 3.21  36 3.21
  44  0.833  0.667  0.333-  42 2.71  38 2.71  47 2.75  52 2.75  41 2.75  39 2.75   8 2.83  74 2.83
                            79 3.14   2 3.14  82 3.21  11 3.21  76 3.21   5 3.21
  45  0.917  0.833  0.667- 103 2.71  43 2.71  46 2.75  82 2.75 143 2.75  89 2.75  88 2.83   9 2.83
                            66 3.14  81 3.14  52 3.21  83 3.21  51 3.21 107 3.21
  46  0.833  0.917  0.500-  52 2.71  65 2.71  38 2.75  45 2.75  60 2.75  66 2.75  10 2.83  83 2.83
                            82 3.14  29 3.14  97 3.21 103 3.21   2 3.21   9 3.21
  47  0.917  0.583  0.500-  82 2.71  64 2.71  43 2.75  44 2.75  79 2.75  85 2.75  84 2.83  11 2.83
                            52 3.14 101 3.14  48 3.21  42 3.21  74 3.21  81 3.21
  48  0.750  0.500  0.667-  27 2.71  43 2.71  11 2.75  64 2.75  55 2.75  36 2.75  12 2.83  85 2.83
                             7 3.14  63 3.14  28 3.21  47 3.21  19 3.21 144 3.21
  49  0.833  0.667  0.000-  54 2.71  50 2.71  41 2.75 144 2.75  39 2.75  51 2.75  86 2.83  13 2.83
                            80 3.14  14 3.14  89 3.21  76 3.21   5 3.21  36 3.21
  50  0.917  0.833  0.000-   1 2.71  49 2.71  40 2.75 143 2.75  89 2.75  76 2.75  14 2.83  87 2.83
                            53 3.14  86 3.14  39 3.21  51 3.21 107 3.21  77 3.21
  51  0.750  0.750  0.833-  36 2.71 143 2.71  49 2.75  14 2.75   9 2.75  43 2.75  89 2.83  15 2.83
                            17 3.14 144 3.14  50 3.21  13 3.21  45 3.21   7 3.21
  52  0.750  0.750  0.500-  11 2.71  46 2.71   2 2.75  43 2.75  44 2.75   9 2.75  16 2.83  82 2.83
                            47 3.14  10 3.14  45 3.21  38 3.21   7 3.21   8 3.21
  53  0.750  0.000  0.000-  14 2.71  67 2.71  26 2.75  40 2.75  23 2.75 143 2.75  71 2.83   1 2.83
                            50 3.14  31 3.14  62 3.21  17 3.21   4 3.21  59 3.21
  54  0.750  0.500  0.000-  32 2.71  49 2.71  36 2.75   5 2.75  55 2.75  58 2.75  18 2.83  80 2.83
                            68 3.14  13 3.14  41 3.21  19 3.21  22 3.21 144 3.21
  55  0.833  0.417  0.833-  69 2.71 144 2.71  68 2.75  54 2.75  63 2.75  48 2.75  98 2.83  19 2.83
                            91 3.14  36 3.14  80 3.21  32 3.21  85 3.21  27 3.21
  56  0.917  0.333  0.333-  79 2.71  37 2.71  64 2.75 100 2.75  58 2.75  94 2.75  20 2.83  93 2.83
                            42 3.14  92 3.14  70 3.21 101 3.21  57 3.21  95 3.21
  57  0.750  0.250  0.167-  23 2.71  58 2.71  32 2.75  67 2.75  20 2.75  37 2.75  21 2.83  94 2.83
                            22 3.14  59 3.14  68 3.21  31 3.21  56 3.21  35 3.21
  58  0.833  0.417  0.167-  57 2.71  41 2.71  68 2.75  54 2.75  56 2.75  42 2.75  22 2.83  95 2.83
                            94 3.14   5 3.14  80 3.21  32 3.21  79 3.21  20 3.21
  59  0.917  0.083  0.167-  94 2.71  40 2.71  67 2.75   1 2.75  37 2.75  97 2.75  96 2.83  23 2.83
                            57 3.14  77 3.14  53 3.21 104 3.21  60 3.21  92 3.21
  60  0.750  0.000  0.333-   2 2.71  37 2.71  29 2.75  46 2.75  40 2.75  23 2.75  24 2.83  97 2.83
                            38 3.14  35 3.14  65 3.21  10 3.21   4 3.21  59 3.21
  61  0.833  0.167  0.667-  66 2.71  63 2.71  65 2.75  70 2.75  62 2.75  69 2.75  25 2.83  99 2.83
                           103 3.14  27 3.14 100 3.21  29 3.21  91 3.21  26 3.21
  62  0.917  0.083  0.833-  91 2.71 143 2.71  67 2.75   1 2.75  61 2.75 103 2.75  90 2.83  26 2.83
                            69 3.14 107 3.14  53 3.21 104 3.21  66 3.21  99 3.21
  63  0.917  0.333  0.667-  85 2.71  61 2.71  64 2.75 100 2.75  55 2.75  91 2.75  27 2.83 106 2.83
                            48 3.14  99 3.14  70 3.21 101 3.21  69 3.21  98 3.21
  64  0.833  0.417  0.500-  70 2.71  47 2.71  63 2.75  56 2.75  48 2.75  42 2.75  28 2.83 101 2.83
                           100 3.14  11 3.14  79 3.21  85 3.21  27 3.21  20 3.21
  65  0.917  0.083  0.500- 100 2.71  46 2.71  61 2.75  37 2.75  97 2.75 103 2.75 102 2.83  29 2.83
                            70 3.14  83 3.14  60 3.21  66 3.21  99 3.21  92 3.21
  66  0.750  0.000  0.667-   9 2.71  61 2.71  46 2.75  29 2.75  26 2.75 143 2.75 103 2.83  30 2.83
                            25 3.14  45 3.14  10 3.21  65 3.21  62 3.21  17 3.21
  67  0.833  0.167  0.000-  53 2.71  68 2.71  62 2.75  59 2.75  57 2.75  69 2.75  31 2.83 104 2.83
                             1 3.14  32 3.14  94 3.21  91 3.21  26 3.21  23 3.21
  68  0.917  0.333  0.000-  80 2.71  67 2.71  55 2.75  58 2.75  91 2.75  94 2.75  32 2.83 105 2.83
                            54 3.14 104 3.14  69 3.21  57 3.21  95 3.21  98 3.21
  69  0.750  0.250  0.833-  26 2.71  55 2.71  32 2.75  67 2.75  61 2.75  27 2.75  33 2.83  91 2.83
                            19 3.14  62 3.14  68 3.21  31 3.21  63 3.21  25 3.21
  70  0.750  0.250  0.500-  29 2.71  64 2.71  20 2.75  37 2.75  61 2.75  27 2.75  34 2.83 100 2.83
                            65 3.14  28 3.14  63 3.21  25 3.21  56 3.21  35 3.21
  71  0.500  0.000  0.000-  31 2.71 122 2.71   4 2.75  17 2.75 126 2.75 132 2.75 109 2.83  53 2.83
                            14 3.14 140 3.14  26 3.21  73 3.21  23 3.21 112 3.21
  72  0.417  0.583  0.833-  15 2.71 127 2.71 121 2.75  18 2.75 115 2.75  12 2.75 108 2.83  36 2.83
                           123 3.14  19 3.14 125 3.21  13 3.21 120 3.21   7 3.21
  73  0.333  0.917  0.833- 123 2.71 126 2.71 122 2.75 109 2.75 117 2.75 139 2.75  17 2.83 107 2.83
                            15 3.14  90 3.14  71 3.21  87 3.21  30 3.21  88 3.21
  74  0.083  0.667  0.333-  79 2.71  75 2.71  84 2.75  82 2.75  78 2.75  76 2.75  44 2.83 116 2.83
                           114 3.14  38 3.14 124 3.21  47 3.21 111 3.21  41 3.21
  75  0.167  0.833  0.333- 133 2.71  74 2.71  83 2.75 124 2.75  77 2.75 111 2.75 110 2.83  38 2.83
                            97 3.14 116 3.14  82 3.21 118 3.21  76 3.21 112 3.21
  76  0.000  0.750  0.167-  41 2.71  77 2.71  50 2.75  86 2.75  38 2.75  74 2.75  39 2.83 111 2.83
                            40 3.14  78 3.14  87 3.21  49 3.21  75 3.21  44 3.21
  77  0.083  0.917  0.167-  76 2.71  96 2.71  87 2.75   1 2.75  75 2.75  97 2.75  40 2.83 112 2.83
                           111 3.14  59 3.14 109 3.21  50 3.21 133 3.21  38 3.21
  78  0.167  0.583  0.167- 111 2.71  95 2.71  86 2.75 125 2.75  74 2.75 114 2.75  41 2.83 113 2.83
                            76 3.14 131 3.14  80 3.21 121 3.21  79 3.21 116 3.21
  79  0.000  0.500  0.333-  56 2.71  74 2.71  47 2.75 101 2.75  95 2.75  41 2.75  42 2.83 114 2.83
                            93 3.14  44 3.14  64 3.21  84 3.21  78 3.21  58 3.21
  80  0.000  0.500  0.000-  68 2.71  86 2.71  41 2.75  95 2.75  98 2.75 144 2.75 125 2.83  54 2.83
                            49 3.14 105 3.14  58 3.21 108 3.21  55 3.21  78 3.21
  81  0.083  0.667  0.667-  85 2.71  88 2.71  84 2.75  82 2.75 108 2.75  89 2.75  43 2.83 115 2.83
                           120 3.14  45 3.14 124 3.21  47 3.21 123 3.21 144 3.21
  82  0.000  0.750  0.500-  47 2.71  83 2.71  38 2.75  74 2.75  81 2.75  45 2.75  52 2.83 124 2.83
                            84 3.14  46 3.14  43 3.21  75 3.21  88 3.21  44 3.21
  83  0.083  0.917  0.500-  82 2.71 102 2.71  88 2.75  75 2.75  97 2.75 103 2.75  46 2.83 118 2.83
                           124 3.14  65 3.14 133 3.21 139 3.21  38 3.21  45 3.21
  84  0.167  0.583  0.500- 124 2.71 101 2.71  74 2.75  81 2.75 120 2.75 114 2.75  47 2.83 119 2.83
                            82 3.14 137 3.14  79 3.21  85 3.21 115 3.21 116 3.21
  85  0.000  0.500  0.667-  63 2.71  81 2.71  47 2.75 101 2.75  98 2.75 144 2.75 120 2.83  48 2.83
                            43 3.14 106 3.14  84 3.21  64 3.21  55 3.21 108 3.21
  86  0.083  0.667  0.000-  80 2.71  87 2.71  78 2.75 108 2.75  89 2.75  76 2.75  49 2.83 121 2.83
                           125 3.14  50 3.14 123 3.21 111 3.21  41 3.21 144 3.21
  87  0.167  0.833  0.000- 109 2.71  86 2.71 107 2.75  77 2.75 111 2.75 123 2.75 122 2.83  50 2.83
                             1 3.14 121 3.14  76 3.21  89 3.21 112 3.21  73 3.21
  88  0.167  0.833  0.667- 139 2.71  81 2.71  83 2.75 124 2.75 107 2.75 123 2.75 117 2.83  45 2.83
                           103 3.14 115 3.14  82 3.21 118 3.21  89 3.21  73 3.21
  89  0.000  0.750  0.833- 107 2.71 144 2.71  50 2.75  86 2.75  81 2.75  45 2.75 123 2.83  51 2.83
                           143 3.14 108 3.14  87 3.21  49 3.21  88 3.21  43 3.21
  90  0.167  0.083  0.833- 142 2.71 107 2.71 104 2.75 109 2.75  99 2.75 139 2.75  62 2.83 126 2.83
                            91 3.14  73 3.14   1 3.21 140 3.21 103 3.21 134 3.21
  91  0.000  0.250  0.833-  62 2.71  98 2.71  68 2.75 104 2.75  99 2.75  63 2.75  69 2.83 142 2.83
                            55 3.14  90 3.14 105 3.21  67 3.21 106 3.21  61 3.21
  92  0.083  0.167  0.333-  97 2.71  93 2.71 102 2.75 100 2.75  96 2.75  94 2.75  37 2.83 128 2.83
                           133 3.14  56 3.14 136 3.21  65 3.21 130 3.21  59 3.21
  93  0.167  0.333  0.333- 114 2.71  92 2.71 101 2.75 136 2.75  95 2.75 130 2.75  56 2.83 129 2.83
                            79 3.14 128 3.14 100 3.21 137 3.21  94 3.21 131 3.21
  94  0.000  0.250  0.167-  59 2.71  95 2.71  68 2.75 104 2.75  56 2.75  92 2.75  57 2.83 130 2.83
                            58 3.14  96 3.14 105 3.21  67 3.21  93 3.21  37 3.21
  95  0.083  0.417  0.167-  94 2.71  78 2.71 105 2.75  80 2.75  93 2.75  79 2.75  58 2.83 131 2.83
                           130 3.14  41 3.14 125 3.21  68 3.21 114 3.21  56 3.21
  96  0.167  0.083  0.167- 130 2.71  77 2.71 104 2.75 109 2.75  92 2.75 133 2.75 132 2.83  59 2.83
                            94 3.14 112 3.14   1 3.21 140 3.21  97 3.21 128 3.21
  97  0.000  0.000  0.333-  38 2.71  92 2.71  83 2.75  65 2.75  59 2.75  77 2.75  60 2.83 133 2.83
                            37 3.14  75 3.14 102 3.21  46 3.21  40 3.21  96 3.21
  98  0.083  0.417  0.833-  91 2.71 108 2.71 105 2.75  80 2.75 106 2.75  85 2.75  55 2.83 127 2.83
                           142 3.14 144 3.14 125 3.21  68 3.21 120 3.21  63 3.21
  99  0.083  0.167  0.667- 103 2.71 106 2.71 102 2.75 100 2.75  90 2.75  91 2.75  61 2.83 134 2.83
                           139 3.14  63 3.14 136 3.21  65 3.21 142 3.21  62 3.21
 100  0.000  0.250  0.500-  65 2.71 101 2.71  56 2.75  92 2.75  99 2.75  63 2.75  70 2.83 136 2.83
                           102 3.14  64 3.14  37 3.21  93 3.21 106 3.21  61 3.21
 101  0.083  0.417  0.500- 100 2.71  84 2.71  93 2.75 106 2.75  85 2.75  79 2.75  64 2.83 137 2.83
                           136 3.14  47 3.14 114 3.21 120 3.21  63 3.21  56 3.21
 102  0.167  0.083  0.500- 136 2.71  83 2.71  99 2.75  92 2.75 133 2.75 139 2.75 138 2.83  65 2.83
                           100 3.14 118 3.14 103 3.21  97 3.21 134 3.21 128 3.21
 103  0.000  0.000  0.667-  45 2.71  99 2.71  83 2.75  65 2.75  62 2.75 107 2.75  66 2.83 139 2.83
                            88 3.14  61 3.14  46 3.21 102 3.21  90 3.21 143 3.21
 104  0.083  0.167  0.000-   1 2.71 105 2.71  96 2.75  90 2.75  91 2.75  94 2.75  67 2.83 140 2.83
                           109 3.14  68 3.14 130 3.21 142 3.21  62 3.21  59 3.21
 105  0.167  0.333  0.000- 125 2.71 104 2.71  95 2.75  98 2.75 130 2.75 142 2.75 141 2.83  68 2.83
                            80 3.14 140 3.14  91 3.21  94 3.21 131 3.21 127 3.21
 106  0.167  0.333  0.667- 120 2.71  99 2.71 101 2.75 136 2.75  98 2.75 142 2.75  63 2.83 135 2.83
                            85 3.14 134 3.14 100 3.21 137 3.21  91 3.21 127 3.21
 107  0.083  0.917  0.833-  89 2.71  90 2.71  87 2.75   1 2.75  88 2.75 103 2.75  73 2.83 143 2.83
                           123 3.14  62 3.14 109 3.21  50 3.21 139 3.21  45 3.21
 108  0.167  0.583  0.833- 123 2.71  98 2.71  86 2.75 125 2.75  81 2.75 120 2.75  72 2.83 144 2.83
                            89 3.14 127 3.14  80 3.21 121 3.21  85 3.21 115 3.21
 109  0.250  0.000  0.000-  87 2.71 140 2.71  90 2.75  96 2.75 112 2.75  73 2.75   1 2.83  71 2.83
                           122 3.14 104 3.14 107 3.21 126 3.21 132 3.21  77 3.21
 110  0.417  0.833  0.333-  24 2.71 116 2.71 118 2.75  16 2.75 112 2.75   3 2.75  75 2.83   2 2.83
                           133 3.14   8 3.14 124 3.21  10 3.21 111 3.21   4 3.21
 111  0.250  0.750  0.167-  78 2.71 112 2.71  87 2.75 121 2.75 116 2.75  75 2.75  76 2.83   3 2.83
                            77 3.14 113 3.14  86 3.21 122 3.21 110 3.21  74 3.21
 112  0.333  0.917  0.167- 111 2.71 132 2.71 122 2.75 109 2.75 110 2.75 133 2.75   4 2.83  77 2.83
                             3 3.14  96 3.14  71 3.21  87 3.21  24 3.21  75 3.21
 113  0.417  0.583  0.167-   3 2.71 131 2.71 121 2.75  18 2.75 116 2.75   6 2.75  78 2.83   5 2.83
                           111 3.14  22 3.14 125 3.21  13 3.21 114 3.21   8 3.21
 114  0.250  0.500  0.333-  93 2.71 116 2.71  84 2.75 137 2.75 131 2.75  78 2.75  79 2.83   6 2.83
                            74 3.14 129 3.14 119 3.21 101 3.21 113 3.21  95 3.21
 115  0.333  0.667  0.667- 120 2.71 117 2.71 119 2.75 124 2.75  72 2.75 123 2.75  81 2.83   7 2.83
                            12 3.14  88 3.14  16 3.21  84 3.21  15 3.21 108 3.21
 116  0.333  0.667  0.333- 114 2.71 110 2.71 119 2.75 124 2.75 113 2.75 111 2.75   8 2.83  74 2.83
                             6 3.14  75 3.14  16 3.21  84 3.21   3 3.21  78 3.21
 117  0.417  0.833  0.667-  30 2.71 115 2.71 118 2.75  16 2.75  73 2.75  15 2.75   9 2.83  88 2.83
                           139 3.14   7 3.14 124 3.21  10 3.21 123 3.21  17 3.21
 118  0.333  0.917  0.500- 124 2.71 138 2.71 110 2.75 117 2.75 133 2.75 139 2.75  10 2.83  83 2.83
                            16 3.14 102 3.14  24 3.21  30 3.21  88 3.21  75 3.21
 119  0.417  0.583  0.500-  16 2.71 137 2.71 116 2.75 115 2.75   6 2.75  12 2.75  84 2.83  11 2.83
                           124 3.14  28 3.14 114 3.21 120 3.21   8 3.21   7 3.21
 120  0.250  0.500  0.667- 106 2.71 115 2.71  84 2.75 137 2.75 127 2.75 108 2.75  85 2.83  12 2.83
                           135 3.14  81 3.14 119 3.21 101 3.21  72 3.21  98 3.21
 121  0.333  0.667  0.000- 125 2.71 122 2.71  72 2.75 113 2.75 123 2.75 111 2.75  86 2.83  13 2.83
                            18 3.14  87 3.14  15 3.21   3 3.21 108 3.21  78 3.21
 122  0.417  0.833  0.000-  71 2.71 121 2.71 112 2.75  73 2.75   3 2.75  15 2.75  14 2.83  87 2.83
                           109 3.14  13 3.14 111 3.21 123 3.21   4 3.21  17 3.21
 123  0.250  0.750  0.833-  73 2.71 108 2.71  87 2.75 121 2.75 115 2.75  88 2.75  89 2.83  15 2.83
                           107 3.14  72 3.14  86 3.21 122 3.21  81 3.21 117 3.21
 124  0.250  0.750  0.500-  84 2.71 118 2.71  88 2.75 115 2.75 116 2.75  75 2.75  82 2.83  16 2.83
                            83 3.14 119 3.14  81 3.21 117 3.21 110 3.21  74 3.21
 125  0.250  0.500  0.000- 105 2.71 121 2.71 108 2.75  78 2.75 127 2.75 131 2.75  80 2.83  18 2.83
                            86 3.14 141 3.14  98 3.21  72 3.21  95 3.21 113 3.21
 126  0.417  0.083  0.833-  33 2.71  73 2.71 140 2.75  71 2.75 134 2.75  30 2.75  26 2.83  90 2.83
                           142 3.14  17 3.14 109 3.21  31 3.21 139 3.21  25 3.21
 127  0.333  0.417  0.833- 142 2.71  72 2.71 141 2.75 125 2.75 135 2.75 120 2.75  98 2.83  19 2.83
                            33 3.14 108 3.14  18 3.21 105 3.21  12 3.21 106 3.21
 128  0.333  0.167  0.333- 133 2.71 129 2.71 138 2.75 136 2.75 132 2.75 130 2.75  35 2.83  92 2.83
                            24 3.14  93 3.14  34 3.21 102 3.21  21 3.21  96 3.21
 129  0.417  0.333  0.333-   6 2.71 128 2.71 137 2.75  34 2.75 131 2.75  21 2.75  93 2.83  20 2.83
                           114 3.14  35 3.14 136 3.21  28 3.21 130 3.21  22 3.21
 130  0.250  0.250  0.167-  96 2.71 131 2.71 105 2.75 140 2.75  93 2.75 128 2.75  94 2.83  21 2.83
                           132 3.14  95 3.14 104 3.21 141 3.21  92 3.21 129 3.21
 131  0.333  0.417  0.167- 130 2.71 113 2.71 141 2.75 125 2.75 129 2.75 114 2.75  22 2.83  95 2.83
                            21 3.14  78 3.14  18 3.21 105 3.21   6 3.21  93 3.21
 132  0.417  0.083  0.167-  21 2.71 112 2.71 140 2.75  71 2.75 128 2.75  24 2.75  96 2.83  23 2.83
                           130 3.14   4 3.14 109 3.21  31 3.21 133 3.21  35 3.21
 133  0.250  0.000  0.333-  75 2.71 128 2.71 118 2.75 102 2.75  96 2.75 112 2.75  24 2.83  97 2.83
                           110 3.14  92 3.14  83 3.21 138 3.21 132 3.21  77 3.21
 134  0.333  0.167  0.667- 139 2.71 135 2.71 138 2.75 136 2.75 126 2.75 142 2.75  25 2.83  99 2.83
                            30 3.14 106 3.14  34 3.21 102 3.21  33 3.21  90 3.21
 135  0.417  0.333  0.667-  12 2.71 134 2.71 137 2.75  34 2.75 127 2.75  33 2.75 106 2.83  27 2.83
                           120 3.14  25 3.14 136 3.21  28 3.21 142 3.21  19 3.21
 136  0.250  0.250  0.500- 102 2.71 137 2.71 106 2.75 128 2.75 134 2.75  93 2.75 100 2.83  34 2.83
                           101 3.14 138 3.14  99 3.21 135 3.21  92 3.21 129 3.21
 137  0.333  0.417  0.500- 136 2.71 119 2.71 135 2.75 129 2.75 120 2.75 114 2.75  28 2.83 101 2.83
                            34 3.14  84 3.14   6 3.21  12 3.21  93 3.21 106 3.21
 138  0.417  0.083  0.500-  34 2.71 118 2.71 128 2.75 134 2.75  24 2.75  30 2.75 102 2.83  29 2.83
                           136 3.14  10 3.14 133 3.21 139 3.21  35 3.21  25 3.21
 139  0.250  0.000  0.667-  88 2.71 134 2.71 118 2.75 102 2.75  90 2.75  73 2.75  30 2.83 103 2.83
                            99 3.14 117 3.14  83 3.21 138 3.21 107 3.21 126 3.21
 140  0.333  0.167  0.000- 109 2.71 141 2.71 132 2.75 126 2.75 130 2.75 142 2.75  31 2.83 104 2.83
                            71 3.14 105 3.14  33 3.21  21 3.21  90 3.21  96 3.21
 141  0.417  0.333  0.000-  18 2.71 140 2.71 131 2.75 127 2.75  33 2.75  21 2.75 105 2.83  32 2.83
                           125 3.14  31 3.14 130 3.21 142 3.21  19 3.21  22 3.21
 142  0.250  0.250  0.833-  90 2.71 127 2.71 105 2.75 140 2.75 134 2.75 106 2.75  91 2.83  33 2.83
                           126 3.14  98 3.14 104 3.21 141 3.21  99 3.21 135 3.21
 143  0.833  0.917  0.833-  51 2.71  62 2.71  50 2.75  53 2.75  45 2.75  66 2.75  17 2.83 107 2.83
                            89 3.14  26 3.14   1 3.21  14 3.21 103 3.21   9 3.21
 144  0.917  0.583  0.833-  89 2.71  55 2.71  49 2.75  80 2.75  43 2.75  85 2.75  36 2.83 108 2.83
                            51 3.14  98 3.14  54 3.21  86 3.21  48 3.21  81 3.21
 

IMPORTANT INFORMATION: All symmetrisations will be switched off!
NOSYMM: (Re-)initialisation of all symmetry stuff for point group C_1.

 
 
 KPOINTS: Automatic mesh                          

Automatic generation of k-mesh.
Space group operators:
 irot       det(A)        alpha          n_x          n_y          n_z        tau_x        tau_y        tau_z
    1     1.000000     0.000001     1.000000     0.000000     0.000000     0.000000     0.000000     0.000000
 
 Subroutine IBZKPT returns following result:
 ===========================================
 
 Found      1 irreducible k-points:
 
 Following reciprocal coordinates:
            Coordinates               Weight
  0.000000  0.000000  0.000000      1.000000
 
 Following cartesian coordinates:
            Coordinates               Weight
  0.000000  0.000000  0.000000      1.000000
 


--------------------------------------------------------------------------------------------------------




 Dimension of arrays:
   k-points           NKPTS =      1   k-points in BZ     NKDIM =      1   number of bands    NBANDS=    952
   number of dos      NEDOS =    301   number of ions     NIONS =    144
   non local maximal  LDIM  =      6   non local SUM 2l+1 LMDIM =     18
   total plane-waves  NPLWV = 155520
   max r-space proj   IRMAX =   2180   max aug-charges    IRDMAX=   3962
   dimension x,y,z NGX =    48 NGY =   60 NGZ =   54
   dimension x,y,z NGXF=    96 NGYF=  120 NGZF=  108
   support grid    NGXF=    96 NGYF=  120 NGZF=  108
   ions per type =             144
   NGX,Y,Z   is equivalent  to a cutoff of   7.05,  6.57,  6.64 a.u.
   NGXF,Y,Z  is equivalent  to a cutoff of  14.10, 13.15, 13.28 a.u.

 SYSTEM =  Ta144                                   
 POSCAR =  Ta                                      

 Startparameter for this run:
   NWRITE =      1    write-flag & timer
   PREC   = normal    normal or accurate (medium, high low for compatibility)
   ISTART =      0    job   : 0-new  1-cont  2-samecut
   ICHARG =      2    charge: 1-file 2-atom 10-const
   ISPIN  =      1    spin polarized calculation?
   LNONCOLLINEAR =      F non collinear calculations
   LSORBIT =      F    spin-orbit coupling
   INIWAV =      1    electr: 0-lowe 1-rand  2-diag
   LASPH  =      F    aspherical Exc in radial PAW
   METAGGA=      F    non-selfconsistent MetaGGA calc.

 Electronic Relaxation 1
   ENCUT  =  250.0 eV  18.37 Ry    4.29 a.u.  14.59 19.56 17.43*2*pi/ulx,y,z
   ENINI  =  250.0     initial cutoff
   ENAUG  =  377.4 eV  augmentation charge cutoff
   NELM   =    200;   NELMIN=  4; NELMDL=-12     # of ELM steps 
   EDIFF  = 0.1E-04   stopping-criterion for ELM
   LREAL  =      T    real-space projection
   NLSPLINE    = F    spline interpolate recip. space projectors
   LCOMPAT=      F    compatible to vasp.4.4
   GGA_COMPAT  = T    GGA compatible to vasp.4.4-vasp.4.6
   LMAXPAW     = -100 max onsite density
   LMAXMIX     =    2 max onsite mixed and CHGCAR
   VOSKOWN=      0    Vosko Wilk Nusair interpolation
   ROPT   =   -0.00050
 Ionic relaxation
   EDIFFG = 0.1E-04   stopping-criterion for IOM
   NSW    =     10    number of steps for IOM
   NBLOCK =      1;   KBLOCK =      1    inner block; outer block 
   IBRION =      0    ionic relax: 0-MD 1-quasi-New 2-CG
   NFREE  =      0    steps in history (QN), initial steepest desc. (CG)
   ISIF   =      3    stress and relaxation
   IWAVPR =     12    prediction:  0-non 1-charg 2-wave 3-comb
   ISYM   =      0    0-nonsym 1-usesym 2-fastsym
   LCORR  =      T    Harris-Foulkes like correction to forces

   POTIM  = 2.0000    time-step for ionic-motion
   TEIN   =    0.0    initial temperature
   TEBEG  =  300.0;   TEEND  =3500.0 temperature during run
   SMASS  =  -3.00    Nose mass-parameter (am)
   estimated Nose-frequenzy (Omega)   =  0.10E-29 period in steps =****** mass=  -0.293E-26a.u.
   SCALEE = 1.0000    scale energy and forces
   NPACO  =    256;   APACO  = 16.0  distance and # of slots for P.C.
   PSTRESS=  300.0 pullay stress

  Mass of Ions in am
   POMASS = 180.95
  Ionic Valenz
   ZVAL   =  11.00
  Atomic Wigner-Seitz radii
   RWIGS  =  -1.00
  virtual crystal weights 
   VCA    =   1.00
   NELECT =    1584.0000    total number of electrons
   NUPDOWN=      -1.0000    fix difference up-down

 DOS related values:
   EMIN   =  10.00;   EMAX   =-10.00  energy-range for DOS
   EFERMI =   0.00
   ISMEAR =     1;   SIGMA  =   0.20  broadening in eV -4-tet -1-fermi 0-gaus

 Electronic relaxation 2 (details)
   IALGO  =     48    algorithm
   LDIAG  =      T    sub-space diagonalisation (order eigenvalues)
   LSUBROT=      F    optimize rotation matrix (better conditioning)
   TURBO    =      0    0=normal 1=particle mesh
   IRESTART =      0    0=no restart 2=restart with 2 vectors
   NREBOOT  =      0    no. of reboots
   NMIN     =      0    reboot dimension
   EREF     =   0.00    reference energy to select bands
   IMIX   =      4    mixing-type and parameters
     AMIX     =   0.40;   BMIX     =  2.00
     AMIX_MAG =   1.60;   BMIX_MAG =  2.00
     AMIN     =   0.10
     WC   =   100.;   INIMIX=   1;  MIXPRE=   1;  MAXMIX= -45

 Intra band minimization:
   WEIMIN = 0.0010     energy-eigenvalue tresh-hold
   EBREAK =  0.26E-09  absolut break condition
   DEPER  =   0.30     relativ break condition  

   TIME   =   0.40     timestep for ELM

  volume/ion in A,a.u.               =      16.12       108.81
  Fermi-wavevector in a.u.,A,eV,Ry     =   1.441160  2.723398 28.258516  2.076942
  Thomas-Fermi vector in A             =   2.559823
 
 Write flags
   LWAVE        =      F    write WAVECAR
   LDOWNSAMPLE  =      F    k-point downsampling of WAVECAR
   LCHARG       =      F    write CHGCAR
   LVTOT        =      F    write LOCPOT, total local potential
   LVHAR        =      F    write LOCPOT, Hartree potential only
   LELF         =      F    write electronic localiz. function (ELF)
   LORBIT       =      0    0 simple, 1 ext, 2 COOP (PROOUT), +10 PAW based schemes


 Dipole corrections
   LMONO  =      F    monopole corrections only (constant potential shift)
   LDIPOL =      F    correct potential (dipole corrections)
   IDIPOL =      0    1-x, 2-y, 3-z, 4-all directions 
   EPSILON=  1.0000000 bulk dielectric constant

 Exchange correlation treatment:
   GGA     =    --    GGA type
   LEXCH   =     8    internal setting for exchange type
   VOSKOWN=      0    Vosko Wilk Nusair interpolation
   LHFCALC =     F    Hartree Fock is set to
   LHFONE  =     F    Hartree Fock one center treatment
   AEXX    =    0.0000 exact exchange contribution

 Linear response parameters
   LEPSILON=     F    determine dielectric tensor
   LRPA    =     F    only Hartree local field effects (RPA)
   LNABLA  =     F    use nabla operator in PAW spheres
   LVEL    =     F    velocity operator in full k-point grid
   LINTERFAST=   F  fast interpolation
   KINTER  =     0    interpolate to denser k-point grid
   CSHIFT  =0.1000    complex shift for real part using Kramers Kronig
   OMEGAMAX=  -1.0    maximum frequency
   DEG_THRESHOLD= 0.2000000E-02 threshold for treating states as degnerate
   RTIME   =   -0.100 relaxation time in fs
  (WPLASMAI=    0.000 imaginary part of plasma frequency in eV, 0.658/RTIME)
   DFIELD  = 0.0000000 0.0000000 0.0000000 field for delta impulse in time
 
 Orbital magnetization related:
   ORBITALMAG=     F  switch on orbital magnetization
   LCHIMAG   =     F  perturbation theory with respect to B field
   DQ        =  0.001000  dq finite difference perturbation B field
   LLRAUG    =     F  two centre corrections for induced B field



--------------------------------------------------------------------------------------------------------


 molecular dynamics for ions
   using a microcanonical ensemble
 charge density and potential will be updated during run
 non-spin polarized calculation
 RMM-DIIS sequential band-by-band
 perform sub-space diagonalisation
    before iterative eigenvector-optimisation
 modified Broyden-mixing scheme, WC =      100.0
 initial mixing is a Kerker type mixing with AMIX =  0.4000 and BMIX =      2.0000
 Hartree-type preconditioning will be used
 using additional bands          160
 real space projection scheme for non local part
 use partial core corrections
 calculate Harris-corrections to forces 
   (improved forces if not selfconsistent)
 use gradient corrections 
 use of overlap-Matrix (Vanderbilt PP)
 Methfessel and Paxton  Order N= 1 SIGMA  =   0.20


--------------------------------------------------------------------------------------------------------


  energy-cutoff  :      250.00
  volume of cell :     2321.90
      direct lattice vectors                 reciprocal lattice vectors
    11.320561148  0.046991016  0.000000000     0.088336638 -0.000432328  0.000000000
     0.074262639 15.173911340  0.000000000    -0.000273564  0.065903925  0.000000000
     0.000000000  0.000000000 13.517187844     0.000000000  0.000000000  0.073979885

  length of vectors
    11.320658676 15.174093064 13.517187844     0.088337696  0.065904493  0.073979885


 
 k-points in units of 2pi/SCALE and weight: Automatic mesh                          
   0.00000000  0.00000000  0.00000000       1.000
 
 k-points in reciprocal lattice and weights: Automatic mesh                          
   0.00000000  0.00000000  0.00000000       1.000
 
 position of ions in fractional coordinates (direct lattice) 
   0.00000000  0.00000000  0.00000000
   0.66666667  0.83333333  0.33333333
   0.50000000  0.75000000  0.16666667
   0.58333333  0.91666667  0.16666667
   0.66666667  0.58333333  0.16666667
   0.50000000  0.50000000  0.33333333
   0.58333333  0.66666667  0.66666667
   0.58333333  0.66666667  0.33333333
   0.66666667  0.83333333  0.66666667
   0.58333333  0.91666667  0.50000000
   0.66666667  0.58333333  0.50000000
   0.50000000  0.50000000  0.66666667
   0.58333333  0.66666667  0.00000000
   0.66666667  0.83333333  0.00000000
   0.50000000  0.75000000  0.83333333
   0.50000000  0.75000000  0.50000000
   0.58333333  0.91666667  0.83333333
   0.50000000  0.50000000  0.00000000
   0.58333333  0.41666667  0.83333333
   0.66666667  0.33333333  0.33333333
   0.50000000  0.25000000  0.16666667
   0.58333333  0.41666667  0.16666667
   0.66666667  0.08333333  0.16666667
   0.50000000  0.00000000  0.33333333
   0.58333333  0.16666667  0.66666667
   0.66666667  0.08333333  0.83333333
   0.66666667  0.33333333  0.66666667
   0.58333333  0.41666667  0.50000000
   0.66666667  0.08333333  0.50000000
   0.50000000  0.00000000  0.66666667
   0.58333333  0.16666667  0.00000000
   0.66666667  0.33333333  0.00000000
   0.50000000  0.25000000  0.83333333
   0.50000000  0.25000000  0.50000000
   0.58333333  0.16666667  0.33333333
   0.66666667  0.58333333  0.83333333
   0.83333333  0.16666667  0.33333333
   0.91666667  0.83333333  0.33333333
   0.75000000  0.75000000  0.16666667
   0.83333333  0.91666667  0.16666667
   0.91666667  0.58333333  0.16666667
   0.75000000  0.50000000  0.33333333
   0.83333333  0.66666667  0.66666667
   0.83333333  0.66666667  0.33333333
   0.91666667  0.83333333  0.66666667
   0.83333333  0.91666667  0.50000000
   0.91666667  0.58333333  0.50000000
   0.75000000  0.50000000  0.66666667
   0.83333333  0.66666667  0.00000000
   0.91666667  0.83333333  0.00000000
   0.75000000  0.75000000  0.83333333
   0.75000000  0.75000000  0.50000000
   0.75000000  0.00000000  0.00000000
   0.75000000  0.50000000  0.00000000
   0.83333333  0.41666667  0.83333333
   0.91666667  0.33333333  0.33333333
   0.75000000  0.25000000  0.16666667
   0.83333333  0.41666667  0.16666667
   0.91666667  0.08333333  0.16666667
   0.75000000  0.00000000  0.33333333
   0.83333333  0.16666667  0.66666667
   0.91666667  0.08333333  0.83333333
   0.91666667  0.33333333  0.66666667
   0.83333333  0.41666667  0.50000000
   0.91666667  0.08333333  0.50000000
   0.75000000  0.00000000  0.66666667
   0.83333333  0.16666667  0.00000000
   0.91666667  0.33333333  0.00000000
   0.75000000  0.25000000  0.83333333
   0.75000000  0.25000000  0.50000000
   0.50000000  0.00000000  0.00000000
   0.41666667  0.58333333  0.83333333
   0.33333333  0.91666667  0.83333333
   0.08333333  0.66666667  0.33333333
   0.16666667  0.83333333  0.33333333
   0.00000000  0.75000000  0.16666667
   0.08333333  0.91666667  0.16666667
   0.16666667  0.58333333  0.16666667
   0.00000000  0.50000000  0.33333333
   0.00000000  0.50000000  0.00000000
   0.08333333  0.66666667  0.66666667
   0.00000000  0.75000000  0.50000000
   0.08333333  0.91666667  0.50000000
   0.16666667  0.58333333  0.50000000
   0.00000000  0.50000000  0.66666667
   0.08333333  0.66666667  0.00000000
   0.16666667  0.83333333  0.00000000
   0.16666667  0.83333333  0.66666667
   0.00000000  0.75000000  0.83333333
   0.16666667  0.08333333  0.83333333
   0.00000000  0.25000000  0.83333333
   0.08333333  0.16666667  0.33333333
   0.16666667  0.33333333  0.33333333
   0.00000000  0.25000000  0.16666667
   0.08333333  0.41666667  0.16666667
   0.16666667  0.08333333  0.16666667
   0.00000000  0.00000000  0.33333333
   0.08333333  0.41666667  0.83333333
   0.08333333  0.16666667  0.66666667
   0.00000000  0.25000000  0.50000000
   0.08333333  0.41666667  0.50000000
   0.16666667  0.08333333  0.50000000
   0.00000000  0.00000000  0.66666667
   0.08333333  0.16666667  0.00000000
   0.16666667  0.33333333  0.00000000
   0.16666667  0.33333333  0.66666667
   0.08333333  0.91666667  0.83333333
   0.16666667  0.58333333  0.83333333
   0.25000000  0.00000000  0.00000000
   0.41666667  0.83333333  0.33333333
   0.25000000  0.75000000  0.16666667
   0.33333333  0.91666667  0.16666667
   0.41666667  0.58333333  0.16666667
   0.25000000  0.50000000  0.33333333
   0.33333333  0.66666667  0.66666667
   0.33333333  0.66666667  0.33333333
   0.41666667  0.83333333  0.66666667
   0.33333333  0.91666667  0.50000000
   0.41666667  0.58333333  0.50000000
   0.25000000  0.50000000  0.66666667
   0.33333333  0.66666667  0.00000000
   0.41666667  0.83333333  0.00000000
   0.25000000  0.75000000  0.83333333
   0.25000000  0.75000000  0.50000000
   0.25000000  0.50000000  0.00000000
   0.41666667  0.08333333  0.83333333
   0.33333333  0.41666667  0.83333333
   0.33333333  0.16666667  0.33333333
   0.41666667  0.33333333  0.33333333
   0.25000000  0.25000000  0.16666667
   0.33333333  0.41666667  0.16666667
   0.41666667  0.08333333  0.16666667
   0.25000000  0.00000000  0.33333333
   0.33333333  0.16666667  0.66666667
   0.41666667  0.33333333  0.66666667
   0.25000000  0.25000000  0.50000000
   0.33333333  0.41666667  0.50000000
   0.41666667  0.08333333  0.50000000
   0.25000000  0.00000000  0.66666667
   0.33333333  0.16666667  0.00000000
   0.41666667  0.33333333  0.00000000
   0.25000000  0.25000000  0.83333333
   0.83333333  0.91666667  0.83333333
   0.91666667  0.58333333  0.83333333
 
 position of ions in cartesian coordinates  (Angst):
   0.00000000  0.00000000  0.00000000
   7.60892630 12.67625346  4.50572928
   5.71597755 11.40392901  2.25286464
   6.67173476 13.93683015  2.25286464
   7.59036064  8.88277563  2.25286464
   5.69741189  7.61045118  4.50572928
   6.65316910 10.14335232  9.01145856
   6.65316910 10.14335232  4.50572928
   7.60892630 12.67625346  9.01145856
   6.67173476 13.93683015  6.75859392
   7.59036064  8.88277563  6.75859392
   5.69741189  7.61045118  9.01145856
   6.65316910 10.14335232  0.00000000
   7.60892630 12.67625346  0.00000000
   5.71597755 11.40392901 11.26432320
   5.71597755 11.40392901  6.75859392
   6.67173476 13.93683015 11.26432320
   5.69741189  7.61045118  0.00000000
   6.63460344  6.34987448 11.26432320
   7.57179498  5.08929779  4.50572928
   5.67884623  3.81697334  2.25286464
   6.63460344  6.34987448  2.25286464
   7.55322932  1.29581996  2.25286464
   5.66028057  0.02349551  4.50572928
   6.61603778  2.55639665  9.01145856
   7.55322932  1.29581996 11.26432320
   7.57179498  5.08929779  9.01145856
   6.63460344  6.34987448  6.75859392
   7.55322932  1.29581996  6.75859392
   5.66028057  0.02349551  9.01145856
   6.61603778  2.55639665  0.00000000
   7.57179498  5.08929779  0.00000000
   5.67884623  3.81697334 11.26432320
   5.67884623  3.81697334  6.75859392
   6.61603778  2.55639665  4.50572928
   7.59036064  8.88277563 11.26432320
   9.44617806  2.56814440  4.50572928
  10.43906658 12.68800122  4.50572928
   8.54611784 11.41567677  2.25286464
   9.50187504 13.94857791  2.25286464
  10.42050093  8.89452338  2.25286464
   8.52755218  7.62219893  4.50572928
   9.48330938 10.15510007  9.01145856
   9.48330938 10.15510007  4.50572928
  10.43906658 12.68800122  9.01145856
   9.50187504 13.94857791  6.75859392
  10.42050093  8.89452338  6.75859392
   8.52755218  7.62219893  9.01145856
   9.48330938 10.15510007  0.00000000
  10.43906658 12.68800122  0.00000000
   8.54611784 11.41567677 11.26432320
   8.54611784 11.41567677  6.75859392
   8.49042086  0.03524326  0.00000000
   8.52755218  7.62219893  0.00000000
   9.46474372  6.36162224 11.26432320
  10.40193527  5.10104554  4.50572928
   8.50898652  3.82872110  2.25286464
   9.46474372  6.36162224  2.25286464
  10.38336961  1.30756771  2.25286464
   8.49042086  0.03524326  4.50572928
   9.44617806  2.56814440  9.01145856
  10.38336961  1.30756771 11.26432320
  10.40193527  5.10104554  9.01145856
   9.46474372  6.36162224  6.75859392
  10.38336961  1.30756771  6.75859392
   8.49042086  0.03524326  9.01145856
   9.44617806  2.56814440  0.00000000
  10.40193527  5.10104554  0.00000000
   8.50898652  3.82872110 11.26432320
   8.50898652  3.82872110  6.75859392
   5.66028057  0.02349551  0.00000000
   4.76022035  8.87102787 11.26432320
   3.84159447 13.92508240 11.26432320
   0.99288852 10.11985681  4.50572928
   1.94864572 12.65275795  4.50572928
   0.05569698 11.38043351  2.25286464
   1.01145418 13.91333465  2.25286464
   1.93008006  8.85928012  2.25286464
   0.03713132  7.58695567  4.50572928
   0.03713132  7.58695567  0.00000000
   0.99288852 10.11985681  9.01145856
   0.05569698 11.38043351  6.75859392
   1.01145418 13.91333465  6.75859392
   1.93008006  8.85928012  6.75859392
   0.03713132  7.58695567  9.01145856
   0.99288852 10.11985681  0.00000000
   1.94864572 12.65275795  0.00000000
   1.94864572 12.65275795  9.01145856
   0.05569698 11.38043351 11.26432320
   1.89294874  1.27232445 11.26432320
   0.01856566  3.79347784 11.26432320
   0.95575720  2.53290114  4.50572928
   1.91151440  5.06580228  4.50572928
   0.01856566  3.79347784  2.25286464
   0.97432286  6.32637898  2.25286464
   1.89294874  1.27232445  2.25286464
   0.00000000  0.00000000  4.50572928
   0.97432286  6.32637898 11.26432320
   0.95575720  2.53290114  9.01145856
   0.01856566  3.79347784  6.75859392
   0.97432286  6.32637898  6.75859392
   1.89294874  1.27232445  6.75859392
   0.00000000  0.00000000  9.01145856
   0.95575720  2.53290114  0.00000000
   1.91151440  5.06580228  0.00000000
   1.91151440  5.06580228  9.01145856
   1.01145418 13.91333465 11.26432320
   1.93008006  8.85928012 11.26432320
   2.83014029  0.01174775  0.00000000
   4.77878601 12.66450571  4.50572928
   2.88583727 11.39218126  2.25286464
   3.84159447 13.92508240  2.25286464
   4.76022035  8.87102787  2.25286464
   2.86727161  7.59870342  4.50572928
   3.82302881 10.13160457  9.01145856
   3.82302881 10.13160457  4.50572928
   4.77878601 12.66450571  9.01145856
   3.84159447 13.92508240  6.75859392
   4.76022035  8.87102787  6.75859392
   2.86727161  7.59870342  9.01145856
   3.82302881 10.13160457  0.00000000
   4.77878601 12.66450571  0.00000000
   2.88583727 11.39218126 11.26432320
   2.88583727 11.39218126  6.75859392
   2.86727161  7.59870342  0.00000000
   4.72308903  1.28407220 11.26432320
   3.80446315  6.33812673 11.26432320
   3.78589749  2.54464890  4.50572928
   4.74165469  5.07755004  4.50572928
   2.84870595  3.80522559  2.25286464
   3.80446315  6.33812673  2.25286464
   4.72308903  1.28407220  2.25286464
   2.83014029  0.01174775  4.50572928
   3.78589749  2.54464890  9.01145856
   4.74165469  5.07755004  9.01145856
   2.84870595  3.80522559  6.75859392
   3.80446315  6.33812673  6.75859392
   4.72308903  1.28407220  6.75859392
   2.83014029  0.01174775  9.01145856
   3.78589749  2.54464890  0.00000000
   4.74165469  5.07755004  0.00000000
   2.84870595  3.80522559 11.26432320
   9.50187504 13.94857791 11.26432320
  10.42050093  8.89452338 11.26432320
 


--------------------------------------------------------------------------------------------------------


 k-point  1 :   0.0000 0.0000 0.0000  plane waves:   20841

 maximum and minimum number of plane-waves per node :     10429    10412

 maximum number of plane-waves:     20841
 maximum index in each direction: 
   IXMAX=   14   IYMAX=   19   IZMAX=   17
   IXMIN=  -14   IYMIN=  -19   IZMIN=  -17


 real space projection operators:
  total allocation   :      41816.25 KBytes
  max/ min on nodes  :      21060.00      20756.25


 parallel 3D FFT for wavefunctions:
    minimum data exchange during FFTs selected (reduces bandwidth)
 parallel 3D FFT for charge:
    minimum data exchange during FFTs selected (reduces bandwidth)


 total amount of memory used by VASP MPI-rank0    96150. kBytes
=======================================================================

   base      :      30000. kBytes
   nonlr-proj:      30737. kBytes
   fftplans  :       5049. kBytes
   grid      :       6915. kBytes
   one-center:       1119. kBytes
   wavefun   :      22330. kBytes
 
     INWAV:  cpu time    0.0000: real time    0.0000
 Broyden mixing: mesh for mixing (old mesh)
   NGX = 29   NGY = 39   NGZ = 35
  (NGX  = 96   NGY  =120   NGZ  =108)
  gives a total of  39585 points

 initial charge density was supplied:
 charge density of overlapping atoms calculated
 number of electron    1584.0000000 magnetization 
 keeping initial charge density in first step


--------------------------------------------------------------------------------------------------------


 Maximum index for non-local projection operator         1025
 Maximum index for augmentation-charges          277 (set IRDMAX)


--------------------------------------------------------------------------------------------------------


 First call to EWALD:  gamma=   0.134
 Maximum number of real-space cells 3x 2x 3
 Maximum number of reciprocal cells 2x 3x 3

    FEWALD:  cpu time    0.0080: real time    0.0080


--------------------------------------- Iteration      1(   1)  ---------------------------------------


    POTLOK:  cpu time    0.0513: real time    0.0514
    SETDIJ:  cpu time    0.0212: real time    0.0212
    EDDIAG:  cpu time    1.1214: real time    1.1216
  RMM-DIIS:  cpu time    1.4383: real time    1.4392
    ORTHCH:  cpu time    0.5086: real time    0.5086
       DOS:  cpu time    0.0008: real time    0.0008
    --------------------------------------------
      LOOP:  cpu time    3.1416: real time    3.1428

 eigenvalue-minimisations  :   952
 total energy-change (2. order) : 0.8130513E+03  (-0.6626258E+05)
 number of electron    1584.0000000 magnetization 
 augmentation part     1584.0000000 magnetization 

 Free energy of the ion-electron system (eV)
  ---------------------------------------------------
  alpha Z        PSCENC =     20473.71623141
  Ewald energy   TEWEN  =   -143397.98724038
  -Hartree energ DENC   =    -16444.27874397
  -exchange      EXHF   =         0.00000000
  -V(xc)+E(xc)   XCENC  =      3466.76876458
  PAW double counting   =    118216.57240686  -115839.45628010
  entropy T*S    EENTRO =        -0.03783132
  eigenvalues    EBANDS =    -16453.14427262
  atomic energy  EATOM  =    150790.89825509
  Solvation  Ediel_sol  =         0.00000000
  ---------------------------------------------------
  free energy    TOTEN  =       813.05128953 eV

  energy without entropy =      813.08912086  energy(sigma->0) =      813.06389998


--------------------------------------------------------------------------------------------------------




--------------------------------------- Iteration      1(   2)  ---------------------------------------


    EDDIAG:  cpu time    1.1145: real time    1.1154
  RMM-DIIS:  cpu time    1.4418: real time    1.4421
    ORTHCH:  cpu time    0.5134: real time    0.5142
       DOS:  cpu time    0.0007: real time    0.0007
    --------------------------------------------
      LOOP:  cpu time    3.0703: real time    3.0724

 eigenvalue-minimisations  :   952
 total energy-change (2. order) :-0.4486192E+04  (-0.1631421E+05)
 number of electron    1584.0000000 magnetization 
 augmentation part     1584.0000000 magnetization 

 Free energy of the ion-electron system (eV)
  ---------------------------------------------------
  alpha Z        PSCENC =     20473.71623141
  Ewald energy   TEWEN  =   -143397.98724038
  -Hartree energ DENC   =    -16444.27874397
  -exchange      EXHF   =         0.00000000
  -V(xc)+E(xc)   XCENC  =      3466.76876458
  PAW double counting   =    118216.57240686  -115839.45628010
  entropy T*S    EENTRO =         0.16235154
  eigenvalues    EBANDS =    -20939.53653617
  atomic energy  EATOM  =    150790.89825509
  Solvation  Ediel_sol  =         0.00000000
  ---------------------------------------------------
  free energy    TOTEN  =     -3673.14079115 eV

  energy without entropy =    -3673.30314269  energy(sigma->0) =    -3673.19490833


--------------------------------------------------------------------------------------------------------




--------------------------------------- Iteration      1(   3)  ---------------------------------------


    EDDIAG:  cpu time    1.1147: real time    1.1152
  RMM-DIIS:  cpu time    1.4338: real time    1.4345
    ORTHCH:  cpu time    0.5088: real time    0.5090
       DOS:  cpu time    0.0006: real time    0.0006
    --------------------------------------------
      LOOP:  cpu time    3.0579: real time    3.0594

 eigenvalue-minimisations  :   952
 total energy-change (2. order) : 0.2593992E+04  (-0.1582013E+04)
 number of electron    1584.0000000 magnetization 
 augmentation part     1584.0000000 magnetization 

 Free energy of the ion-electron system (eV)
  ---------------------------------------------------
  alpha Z        PSCENC =     20473.71623141
  Ewald energy   TEWEN  =   -143397.98724038
  -Hartree energ DENC   =    -16444.27874397
  -exchange      EXHF   =         0.00000000
  -V(xc)+E(xc)   XCENC  =      3466.76876458
  PAW double counting   =    118216.57240686  -115839.45628010
  entropy T*S    EENTRO =         0.00185918
  eigenvalues    EBANDS =    -18345.38448374
  atomic energy  EATOM  =    150790.89825509
  Solvation  Ediel_sol  =         0.00000000
  ---------------------------------------------------
  free energy    TOTEN  =     -1079.14923108 eV

  energy without entropy =    -1079.15109026  energy(sigma->0) =    -1079.14985080


--------------------------------------------------------------------------------------------------------




--------------------------------------- Iteration      1(   4)  ---------------------------------------


    EDDIAG:  cpu time    1.1143: real time    1.1151
  RMM-DIIS:  cpu time    1.4423: real time    1.4426
    ORTHCH:  cpu time    0.5093: real time    0.5099
       DOS:  cpu time    0.0007: real time    0.0007
    --------------------------------------------
      LOOP:  cpu time    3.0666: real time    3.0683

 eigenvalue-minimisations  :   952
 total energy-change (2. order) :-0.3705870E+03  (-0.3655382E+03)
 number of electron    1584.0000000 magnetization 
 augmentation part     1584.0000000 magnetization 

 Free energy of the ion-electron system (eV)
  ---------------------------------------------------
  alpha Z        PSCENC =     20473.71623141
  Ewald energy   TEWEN  =   -143397.98724038
  -Hartree energ DENC   =    -16444.27874397
  -exchange      EXHF   =         0.00000000
  -V(xc)+E(xc)   XCENC  =      3466.76876458
  PAW double counting   =    118216.57240686  -115839.45628010
  entropy T*S    EENTRO =         0.17006612
  eigenvalues    EBANDS =    -18716.13973085
  atomic energy  EATOM  =    150790.89825509
  Solvation  Ediel_sol  =         0.00000000
  ---------------------------------------------------
  free energy    TOTEN  =     -1449.73627125 eV

  energy without entropy =    -1449.90633737  energy(sigma->0) =    -1449.79295996


--------------------------------------------------------------------------------------------------------




--------------------------------------- Iteration      1(   5)  ---------------------------------------


    EDDIAG:  cpu time    1.1098: real time    1.1102
  RMM-DIIS:  cpu time    1.4219: real time    1.4227
    ORTHCH:  cpu time    0.5120: real time    0.5122
       DOS:  cpu time    0.0007: real time    0.0007
    --------------------------------------------
      LOOP:  cpu time    3.0444: real time    3.0457

 eigenvalue-minimisations  :   952
 total energy-change (2. order) :-0.1381950E+03  (-0.1325565E+03)
 number of electron    1584.0000000 magnetization 
 augmentation part     1584.0000000 magnetization 

 Free energy of the ion-electron system (eV)
  ---------------------------------------------------
  alpha Z        PSCENC =     20473.71623141
  Ewald energy   TEWEN  =   -143397.98724038
  -Hartree energ DENC   =    -16444.27874397
  -exchange      EXHF   =         0.00000000
  -V(xc)+E(xc)   XCENC  =      3466.76876458
  PAW double counting   =    118216.57240686  -115839.45628010
  entropy T*S    EENTRO =         0.10968706
  eigenvalues    EBANDS =    -18854.27437569
  atomic energy  EATOM  =    150790.89825509
  Solvation  Ediel_sol  =         0.00000000
  ---------------------------------------------------
  free energy    TOTEN  =     -1587.93129515 eV

  energy without entropy =    -1588.04098221  energy(sigma->0) =    -1587.96785750


--------------------------------------------------------------------------------------------------------




--------------------------------------- Iteration      1(   6)  ---------------------------------------


    EDDIAG:  cpu time    1.1147: real time    1.1159
  RMM-DIIS:  cpu time    1.4365: real time    1.4369
    ORTHCH:  cpu time    0.5085: real time    0.5091
       DOS:  cpu time    0.0007: real time    0.0007
    --------------------------------------------
      LOOP:  cpu time    3.0604: real time    3.0625

 eigenvalue-minimisations  :   952
 total energy-change (2. order) :-0.6203861E+02  (-0.6168879E+02)
 number of electron    1584.0000000 magnetization 
 augmentation part     1584.0000000 magnetization 

 Free energy of the ion-electron system (eV)
  ---------------------------------------------------
  alpha Z        PSCENC =     20473.71623141
  Ewald energy   TEWEN  =   -143397.98724038
  -Hartree energ DENC   =    -16444.27874397
  -exchange      EXHF   =         0.00000000
  -V(xc)+E(xc)   XCENC  =      3466.76876458
  PAW double counting   =    118216.57240686  -115839.45628010
  entropy T*S    EENTRO =        -0.21429510
  eigenvalues    EBANDS =    -18915.98899947
  atomic energy  EATOM  =    150790.89825509
  Solvation  Ediel_sol  =         0.00000000
  ---------------------------------------------------
  free energy    TOTEN  =     -1649.96990109 eV

  energy without entropy =    -1649.75560599  energy(sigma->0) =    -1649.89846939


--------------------------------------------------------------------------------------------------------




--------------------------------------- Iteration      1(   7)  ---------------------------------------


    EDDIAG:  cpu time    1.1126: real time    1.1128
  RMM-DIIS:  cpu time    1.4293: real time    1.4303
    ORTHCH:  cpu time    0.5081: real time    0.5080
       DOS:  cpu time    0.0007: real time    0.0007
    --------------------------------------------
      LOOP:  cpu time    3.0506: real time    3.0518

 eigenvalue-minimisations  :   952
 total energy-change (2. order) :-0.3441768E+02  (-0.3409546E+02)
 number of electron    1584.0000000 magnetization 
 augmentation part     1584.0000000 magnetization 

 Free energy of the ion-electron system (eV)
  ---------------------------------------------------
  alpha Z        PSCENC =     20473.71623141
  Ewald energy   TEWEN  =   -143397.98724038
  -Hartree energ DENC   =    -16444.27874397
  -exchange      EXHF   =         0.00000000
  -V(xc)+E(xc)   XCENC  =      3466.76876458
  PAW double counting   =    118216.57240686  -115839.45628010
  entropy T*S    EENTRO =         0.04916792
  eigenvalues    EBANDS =    -18950.67014259
  atomic energy  EATOM  =    150790.89825509
  Solvation  Ediel_sol  =         0.00000000
  ---------------------------------------------------
  free energy    TOTEN  =     -1684.38758118 eV

  energy without entropy =    -1684.43674911  energy(sigma->0) =    -1684.40397049


--------------------------------------------------------------------------------------------------------




--------------------------------------- Iteration      1(   8)  ---------------------------------------


    EDDIAG:  cpu time    1.1123: real time    1.1133
  RMM-DIIS:  cpu time    1.4385: real time    1.4392
    ORTHCH:  cpu time    0.5083: real time    0.5085
       DOS:  cpu time    0.0006: real time    0.0006
    --------------------------------------------
      LOOP:  cpu time    3.0597: real time    3.0616

 eigenvalue-minimisations  :   952
 total energy-change (2. order) :-0.1784900E+02  (-0.1866528E+02)
 number of electron    1584.0000000 magnetization 
 augmentation part     1584.0000000 magnetization 

 Free energy of the ion-electron system (eV)
  ---------------------------------------------------
  alpha Z        PSCENC =     20473.71623141
  Ewald energy   TEWEN  =   -143397.98724038
  -Hartree energ DENC   =    -16444.27874397
  -exchange      EXHF   =         0.00000000
  -V(xc)+E(xc)   XCENC  =      3466.76876458
  PAW double counting   =    118216.57240686  -115839.45628010
  entropy T*S    EENTRO =         0.26767509
  eigenvalues    EBANDS =    -18968.73765261
  atomic energy  EATOM  =    150790.89825509
  Solvation  Ediel_sol  =         0.00000000
  ---------------------------------------------------
  free energy    TOTEN  =     -1702.23658404 eV

  energy without entropy =    -1702.50425913  energy(sigma->0) =    -1702.32580907


--------------------------------------------------------------------------------------------------------




--------------------------------------- Iteration      1(   9)  ---------------------------------------


    EDDIAG:  cpu time    1.1122: real time    1.1123
  RMM-DIIS:  cpu time    3.3293: real time    3.3312
    ORTHCH:  cpu time    0.5124: real time    0.5124
       DOS:  cpu time    0.0007: real time    0.0007
    --------------------------------------------
      LOOP:  cpu time    4.9545: real time    4.9566

 eigenvalue-minimisations  :  2399
 total energy-change (2. order) :-0.2080133E+02  (-0.2124671E+02)
 number of electron    1584.0000000 magnetization 
 augmentation part     1584.0000000 magnetization 

 Free energy of the ion-electron system (eV)
  ---------------------------------------------------
  alpha Z        PSCENC =     20473.71623141
  Ewald energy   TEWEN  =   -143397.98724038
  -Hartree energ DENC   =    -16444.27874397
  -exchange      EXHF   =         0.00000000
  -V(xc)+E(xc)   XCENC  =      3466.76876458
  PAW double counting   =    118216.57240686  -115839.45628010
  entropy T*S    EENTRO =         0.15287220
  eigenvalues    EBANDS =    -18989.42417571
  atomic energy  EATOM  =    150790.89825509
  Solvation  Ediel_sol  =         0.00000000
  ---------------------------------------------------
  free energy    TOTEN  =     -1723.03791004 eV

  energy without entropy =    -1723.19078223  energy(sigma->0) =    -1723.08886743


--------------------------------------------------------------------------------------------------------




--------------------------------------- Iteration      1(  10)  ---------------------------------------


    EDDIAG:  cpu time    1.1125: real time    1.1135
  RMM-DIIS:  cpu time    3.3906: real time    3.3924
    ORTHCH:  cpu time    0.5091: real time    0.5093
       DOS:  cpu time    0.0007: real time    0.0007
    --------------------------------------------
      LOOP:  cpu time    5.0130: real time    5.0158

 eigenvalue-minimisations  :  2411
 total energy-change (2. order) :-0.3216625E+01  (-0.1971222E+01)
 number of electron    1584.0000000 magnetization 
 augmentation part     1584.0000000 magnetization 

 Free energy of the ion-electron system (eV)
  ---------------------------------------------------
  alpha Z        PSCENC =     20473.71623141
  Ewald energy   TEWEN  =   -143397.98724038
  -Hartree energ DENC   =    -16444.27874397
  -exchange      EXHF   =         0.00000000
  -V(xc)+E(xc)   XCENC  =      3466.76876458
  PAW double counting   =    118216.57240686  -115839.45628010
  entropy T*S    EENTRO =         0.01389996
  eigenvalues    EBANDS =    -18992.50182871
  atomic energy  EATOM  =    150790.89825509
  Solvation  Ediel_sol  =         0.00000000
  ---------------------------------------------------
  free energy    TOTEN  =     -1726.25453527 eV

  energy without entropy =    -1726.26843523  energy(sigma->0) =    -1726.25916859


--------------------------------------------------------------------------------------------------------




--------------------------------------- Iteration      1(  11)  ---------------------------------------


    EDDIAG:  cpu time    1.1122: real time    1.1123
  RMM-DIIS:  cpu time    3.5388: real time    3.5407
    ORTHCH:  cpu time    0.5088: real time    0.5089
       DOS:  cpu time    0.0007: real time    0.0007
    --------------------------------------------
      LOOP:  cpu time    5.1604: real time    5.1626

 eigenvalue-minimisations  :  2547
 total energy-change (2. order) :-0.3175805E+00  (-0.1730923E+00)
 number of electron    1584.0000000 magnetization 
 augmentation part     1584.0000000 magnetization 

 Free energy of the ion-electron system (eV)
  ---------------------------------------------------
  alpha Z        PSCENC =     20473.71623141
  Ewald energy   TEWEN  =   -143397.98724038
  -Hartree energ DENC   =    -16444.27874397
  -exchange      EXHF   =         0.00000000
  -V(xc)+E(xc)   XCENC  =      3466.76876458
  PAW double counting   =    118216.57240686  -115839.45628010
  entropy T*S    EENTRO =         0.00173423
  eigenvalues    EBANDS =    -18992.80724345
  atomic energy  EATOM  =    150790.89825509
  Solvation  Ediel_sol  =         0.00000000
  ---------------------------------------------------
  free energy    TOTEN  =     -1726.57211573 eV

  energy without entropy =    -1726.57384997  energy(sigma->0) =    -1726.57269381


--------------------------------------------------------------------------------------------------------




--------------------------------------- Iteration      1(  12)  ---------------------------------------


    EDDIAG:  cpu time    1.1137: real time    1.1145
  RMM-DIIS:  cpu time    2.9857: real time    2.9868
    ORTHCH:  cpu time    0.5089: real time    0.5096
       DOS:  cpu time    0.0007: real time    0.0007
    CHARGE:  cpu time    0.1865: real time    0.1866
    MIXING:  cpu time    0.0016: real time    0.0016
    --------------------------------------------
      LOOP:  cpu time    4.7971: real time    4.7997

 eigenvalue-minimisations  :  2127
 total energy-change (2. order) :-0.2486367E-01  (-0.1106398E-01)
 number of electron    1584.0006694 magnetization 
 augmentation part      473.0068397 magnetization 

 Broyden mixing:
  rms(total) = 0.21768E+02    rms(broyden)= 0.21767E+02
  rms(prec ) = 0.21881E+02
  weight for this iteration     100.00

 Free energy of the ion-electron system (eV)
  ---------------------------------------------------
  alpha Z        PSCENC =     20473.71623141
  Ewald energy   TEWEN  =   -143397.98724038
  -Hartree energ DENC   =    -16444.27874397
  -exchange      EXHF   =         0.00000000
  -V(xc)+E(xc)   XCENC  =      3466.76876458
  PAW double counting   =    118216.57240686  -115839.45628010
  entropy T*S    EENTRO =        -0.00090009
  eigenvalues    EBANDS =    -18992.82947280
  atomic energy  EATOM  =    150790.89825509
  Solvation  Ediel_sol  =         0.00000000
  ---------------------------------------------------
  free energy    TOTEN  =     -1726.59697941 eV

  energy without entropy =    -1726.59607932  energy(sigma->0) =    -1726.59667938


--------------------------------------------------------------------------------------------------------




--------------------------------------- Iteration      1(  13)  ---------------------------------------


    POTLOK:  cpu time    0.0436: real time    0.0436
    SETDIJ:  cpu time    0.0211: real time    0.0211
    EDDIAG:  cpu time    1.1073: real time    1.1075
  RMM-DIIS:  cpu time    2.7299: real time    2.7316
    ORTHCH:  cpu time    0.5083: real time    0.5084
       DOS:  cpu time    0.0007: real time    0.0007
    CHARGE:  cpu time    0.1867: real time    0.1867
    MIXING:  cpu time    0.0018: real time    0.0018
    --------------------------------------------
      LOOP:  cpu time    4.5995: real time    4.6015

 eigenvalue-minimisations  :  1906
 total energy-change (2. order) : 0.3108357E+02  (-0.1789150E+01)
 number of electron    1584.0006766 magnetization 
 augmentation part      476.9878312 magnetization 

 Broyden mixing:
  rms(total) = 0.12071E+02    rms(broyden)= 0.12071E+02
  rms(prec ) = 0.12155E+02
  weight for this iteration     100.00

 eigenvalues of (default mixing * dielectric matrix)
  average eigenvalue GAMMA=   2.2375
  2.2375

 Free energy of the ion-electron system (eV)
  ---------------------------------------------------
  alpha Z        PSCENC =     20473.71623141
  Ewald energy   TEWEN  =   -143397.98724038
  -Hartree energ DENC   =    -15698.24714792
  -exchange      EXHF   =         0.00000000
  -V(xc)+E(xc)   XCENC  =      3430.36285670
  PAW double counting   =    183857.17984708  -181690.12864309
  entropy T*S    EENTRO =        -0.08869110
  eigenvalues    EBANDS =    -19461.21887517
  atomic energy  EATOM  =    150790.89825509
  Solvation  Ediel_sol  =         0.00000000
  ---------------------------------------------------
  free energy    TOTEN  =     -1695.51340738 eV

  energy without entropy =    -1695.42471628  energy(sigma->0) =    -1695.48384368


--------------------------------------------------------------------------------------------------------




--------------------------------------- Iteration      1(  14)  ---------------------------------------


    POTLOK:  cpu time    0.0438: real time    0.0440
    SETDIJ:  cpu time    0.0211: real time    0.0211
    EDDIAG:  cpu time    1.1066: real time    1.1074
  RMM-DIIS:  cpu time    2.6943: real time    2.6954
    ORTHCH:  cpu time    0.5077: real time    0.5079
       DOS:  cpu time    0.0007: real time    0.0007
    CHARGE:  cpu time    0.1865: real time    0.1865
    MIXING:  cpu time    0.0018: real time    0.0018
    --------------------------------------------
      LOOP:  cpu time    4.5625: real time    4.5648

 eigenvalue-minimisations  :  1906
 total energy-change (2. order) : 0.2277545E+02  (-0.4506789E+01)
 number of electron    1584.0006888 magnetization 
 augmentation part      483.2170936 magnetization 

 Broyden mixing:
  rms(total) = 0.65770E+00    rms(broyden)= 0.65740E+00
  rms(prec ) = 0.70642E+00
  weight for this iteration     100.00

 eigenvalues of (default mixing * dielectric matrix)
  average eigenvalue GAMMA=   2.5194
  2.5194  2.5194

 Free energy of the ion-electron system (eV)
  ---------------------------------------------------
  alpha Z        PSCENC =     20473.71623141
  Ewald energy   TEWEN  =   -143397.98724038
  -Hartree energ DENC   =    -14674.28607049
  -exchange      EXHF   =         0.00000000
  -V(xc)+E(xc)   XCENC  =      3381.71747326
  PAW double counting   =    298781.49249013  -296873.07381147
  entropy T*S    EENTRO =        -0.10543269
  eigenvalues    EBANDS =    -20155.10984919
  atomic energy  EATOM  =    150790.89825509
  Solvation  Ediel_sol  =         0.00000000
  ---------------------------------------------------
  free energy    TOTEN  =     -1672.73795433 eV

  energy without entropy =    -1672.63252164  energy(sigma->0) =    -1672.70281010


--------------------------------------------------------------------------------------------------------




--------------------------------------- Iteration      1(  15)  ---------------------------------------


    POTLOK:  cpu time    0.0433: real time    0.0433
    SETDIJ:  cpu time    0.0211: real time    0.0211
    EDDIAG:  cpu time    1.1074: real time    1.1082
  RMM-DIIS:  cpu time    2.7603: real time    2.7613
    ORTHCH:  cpu time    0.5080: real time    0.5087
       DOS:  cpu time    0.0007: real time    0.0007
    CHARGE:  cpu time    0.1860: real time    0.1860
    MIXING:  cpu time    0.0018: real time    0.0018
    --------------------------------------------
      LOOP:  cpu time    4.6286: real time    4.6312

 eigenvalue-minimisations  :  1932
 total energy-change (2. order) : 0.6911203E-01  (-0.3708466E+00)
 number of electron    1584.0006916 magnetization 
 augmentation part      484.6815841 magnetization 

 Broyden mixing:
  rms(total) = 0.24131E+00    rms(broyden)= 0.24116E+00
  rms(prec ) = 0.60170E+00
  weight for this iteration     100.00

 eigenvalues of (default mixing * dielectric matrix)
  average eigenvalue GAMMA=   1.8673
  2.5412  2.5412  0.5194

 Free energy of the ion-electron system (eV)
  ---------------------------------------------------
  alpha Z        PSCENC =     20473.71623141
  Ewald energy   TEWEN  =   -143397.98724038
  -Hartree energ DENC   =    -14559.51799777
  -exchange      EXHF   =         0.00000000
  -V(xc)+E(xc)   XCENC  =      3376.57978883
  PAW double counting   =    296625.79909701  -294703.14878934
  entropy T*S    EENTRO =        -0.07314771
  eigenvalues    EBANDS =    -20278.93503943
  atomic energy  EATOM  =    150790.89825509
  Solvation  Ediel_sol  =         0.00000000
  ---------------------------------------------------
  free energy    TOTEN  =     -1672.66884230 eV

  energy without entropy =    -1672.59569459  energy(sigma->0) =    -1672.64445973


--------------------------------------------------------------------------------------------------------




--------------------------------------- Iteration      1(  16)  ---------------------------------------


    POTLOK:  cpu time    0.0434: real time    0.0434
    SETDIJ:  cpu time    0.0211: real time    0.0211
    EDDIAG:  cpu time    1.1141: real time    1.1142
  RMM-DIIS:  cpu time    3.1292: real time    3.1311
    ORTHCH:  cpu time    0.5082: real time    0.5084
       DOS:  cpu time    0.0007: real time    0.0007
    CHARGE:  cpu time    0.1859: real time    0.1859
    MIXING:  cpu time    0.0019: real time    0.0019
    --------------------------------------------
      LOOP:  cpu time    5.0046: real time    5.0068

 eigenvalue-minimisations  :  2216
 total energy-change (2. order) : 0.5263729E-01  (-0.4899124E-01)
 number of electron    1584.0006919 magnetization 
 augmentation part      484.8949372 magnetization 

 Broyden mixing:
  rms(total) = 0.20369E+00    rms(broyden)= 0.20352E+00
  rms(prec ) = 0.46191E+00
  weight for this iteration     100.00

 eigenvalues of (default mixing * dielectric matrix)
  average eigenvalue GAMMA=   1.8389
  2.5857  2.5857  2.0166  0.1673

 Free energy of the ion-electron system (eV)
  ---------------------------------------------------
  alpha Z        PSCENC =     20473.71623141
  Ewald energy   TEWEN  =   -143397.98724038
  -Hartree energ DENC   =    -14550.44385199
  -exchange      EXHF   =         0.00000000
  -V(xc)+E(xc)   XCENC  =      3376.19356104
  PAW double counting   =    296943.02984855  -295018.81840998
  entropy T*S    EENTRO =        -0.07688414
  eigenvalues    EBANDS =    -20289.12771461
  atomic energy  EATOM  =    150790.89825509
  Solvation  Ediel_sol  =         0.00000000
  ---------------------------------------------------
  free energy    TOTEN  =     -1672.61620501 eV

  energy without entropy =    -1672.53932087  energy(sigma->0) =    -1672.59057697


--------------------------------------------------------------------------------------------------------




--------------------------------------- Iteration      1(  17)  ---------------------------------------


    POTLOK:  cpu time    0.0433: real time    0.0433
    SETDIJ:  cpu time    0.0211: real time    0.0211
    EDDIAG:  cpu time    1.1073: real time    1.1081
  RMM-DIIS:  cpu time    2.9556: real time    2.9567
    ORTHCH:  cpu time    0.5091: real time    0.5093
       DOS:  cpu time    0.0007: real time    0.0007
    CHARGE:  cpu time    0.1851: real time    0.1857
    MIXING:  cpu time    0.0021: real time    0.0021
    --------------------------------------------
      LOOP:  cpu time    4.8244: real time    4.8270

 eigenvalue-minimisations  :  2072
 total energy-change (2. order) : 0.6879533E-01  (-0.9439168E-02)
 number of electron    1584.0006922 magnetization 
 augmentation part      485.0610642 magnetization 

 Broyden mixing:
  rms(total) = 0.90541E-01    rms(broyden)= 0.90505E-01
  rms(prec ) = 0.10156E+00
  weight for this iteration     100.00

 eigenvalues of (default mixing * dielectric matrix)
  average eigenvalue GAMMA=   1.7935
  2.9326  2.4659  2.4659  0.9333  0.1697

 Free energy of the ion-electron system (eV)
  ---------------------------------------------------
  alpha Z        PSCENC =     20473.71623141
  Ewald energy   TEWEN  =   -143397.98724038
  -Hartree energ DENC   =    -14538.67897181
  -exchange      EXHF   =         0.00000000
  -V(xc)+E(xc)   XCENC  =      3375.71973990
  PAW double counting   =    298510.57507458  -296582.49425692
  entropy T*S    EENTRO =        -0.08083379
  eigenvalues    EBANDS =    -20304.21540779
  atomic energy  EATOM  =    150790.89825509
  Solvation  Ediel_sol  =         0.00000000
  ---------------------------------------------------
  free energy    TOTEN  =     -1672.54740968 eV

  energy without entropy =    -1672.46657590  energy(sigma->0) =    -1672.52046509


--------------------------------------------------------------------------------------------------------




--------------------------------------- Iteration      1(  18)  ---------------------------------------


    POTLOK:  cpu time    0.0431: real time    0.0431
    SETDIJ:  cpu time    0.0212: real time    0.0212
    EDDIAG:  cpu time    1.1084: real time    1.1086
  RMM-DIIS:  cpu time    3.1226: real time    3.1245
    ORTHCH:  cpu time    0.5097: real time    0.5097
       DOS:  cpu time    0.0007: real time    0.0007
    CHARGE:  cpu time    0.1866: real time    0.1868
    MIXING:  cpu time    0.0022: real time    0.0022
    --------------------------------------------
      LOOP:  cpu time    4.9944: real time    4.9967

 eigenvalue-minimisations  :  2236
 total energy-change (2. order) :-0.1534960E-01  (-0.3720744E-02)
 number of electron    1584.0006922 magnetization 
 augmentation part      485.0464485 magnetization 

 Broyden mixing:
  rms(total) = 0.73398E-01    rms(broyden)= 0.73373E-01
  rms(prec ) = 0.17455E+00
  weight for this iteration     100.00

[...]
   -.252E+01 0.142E+02 -.110E+02   0.273E+01 -.146E+02 0.114E+02   0.101E+00 0.992E-01 -.120E-01   0.197E-02 -.188E-02 0.197E-02
   0.110E+02 -.194E+00 0.250E+02   -.113E+02 0.189E+00 -.257E+02   0.156E+00 0.252E-01 0.194E+00   0.273E-02 -.274E-03 0.158E-02
   0.668E+01 -.136E+02 -.921E+01   -.698E+01 0.139E+02 0.950E+01   -.103E+00 0.448E-01 0.934E-01   0.245E-02 0.341E-03 0.505E-03
   -.160E+02 0.627E+01 -.405E+01   0.165E+02 -.625E+01 0.421E+01   -.230E-01 -.106E-01 -.118E+00   0.280E-02 0.442E-02 0.316E-02
   0.630E+01 0.909E+01 -.193E+02   -.628E+01 -.934E+01 0.200E+02   -.138E+00 0.357E-01 -.264E+00   0.127E-02 -.150E-02 0.523E-02
   -.142E+02 -.486E+01 0.336E+01   0.143E+02 0.504E+01 -.358E+01   0.215E+00 -.376E-01 -.572E-01   0.404E-02 -.372E-02 0.804E-03
   0.145E+02 0.107E+02 -.808E+01   -.148E+02 -.110E+02 0.833E+01   -.189E-01 0.140E+00 -.222E+00   0.135E-02 0.441E-03 -.366E-02
   -.103E+02 -.237E+01 0.310E+01   0.104E+02 0.248E+01 -.365E+01   0.923E-01 0.355E-01 0.133E+00   0.192E-03 0.156E-02 -.278E-02
   0.567E+01 0.182E+01 0.759E+01   -.585E+01 -.189E+01 -.791E+01   -.180E-01 0.307E-01 -.790E-01   -.518E-03 0.215E-03 -.133E-02
   0.151E+02 0.361E+01 0.668E+01   -.154E+02 -.368E+01 -.691E+01   -.120E+00 -.192E-01 0.207E-01   0.261E-02 -.680E-03 0.373E-02
   0.672E+01 0.649E+01 -.164E+01   -.692E+01 -.639E+01 0.172E+01   -.635E-01 -.782E-01 -.875E-01   0.154E-02 -.120E-02 -.510E-02
   -.402E+01 0.406E+01 0.199E+02   0.420E+01 -.438E+01 -.206E+02   -.569E-01 0.152E+00 0.136E+00   -.798E-03 0.319E-02 -.348E-02
   0.159E+02 -.107E+02 -.174E+02   -.161E+02 0.109E+02 0.176E+02   -.176E+00 -.304E-01 0.689E-01   0.290E-02 -.243E-02 -.415E-02
   -.200E+02 -.111E+02 0.266E+02   0.206E+02 0.115E+02 -.273E+02   0.623E-01 -.364E-01 0.105E+00   0.547E-03 0.514E-03 0.501E-02
   0.635E+01 0.980E+01 0.479E+01   -.683E+01 -.102E+02 -.491E+01   0.157E+00 0.116E+00 -.465E-01   -.395E-02 -.382E-02 0.603E-02
   0.400E+01 0.940E+01 0.161E+02   -.419E+01 -.101E+02 -.164E+02   0.524E-01 0.114E+00 0.651E-01   0.887E-03 -.144E-02 0.223E-02
   0.158E+02 -.114E+02 0.111E+02   -.158E+02 0.119E+02 -.112E+02   -.133E+00 -.180E+00 -.383E-01   -.759E-03 -.223E-02 0.448E-03
   0.856E+01 -.681E+01 0.205E+01   -.865E+01 0.695E+01 -.181E+01   -.165E+00 -.428E-01 -.114E+00   0.678E-04 0.106E-03 0.837E-03
   -.123E+02 0.182E+02 0.167E+02   0.124E+02 -.186E+02 -.170E+02   0.157E+00 0.324E-01 -.747E-02   0.519E-02 0.468E-02 0.344E-02
   -.129E+02 0.711E+01 -.179E+02   0.128E+02 -.734E+01 0.186E+02   -.651E-01 -.143E-01 -.614E-02   0.805E-03 0.211E-02 -.108E-02
   -.248E+01 -.155E+02 0.972E+01   0.279E+01 0.162E+02 -.101E+02   -.112E+00 -.138E+00 -.468E-01   -.171E-02 -.147E-02 0.984E-03
   -.737E+01 -.245E+02 -.238E+01   0.775E+01 0.251E+02 0.278E+01   0.526E-01 -.269E+00 0.198E-01   0.220E-02 -.210E-03 0.313E-02
   0.260E+01 0.327E+01 -.207E+02   -.263E+01 -.399E+01 0.215E+02   -.320E-01 0.271E+00 0.896E-02   -.353E-03 -.408E-02 0.520E-02
   -.302E+02 0.565E+01 -.345E+01   0.308E+02 -.572E+01 0.319E+01   0.130E-01 0.665E-01 0.145E+00   -.142E-02 0.320E-02 0.257E-02
   -.279E+02 0.226E+02 -.172E+02   0.286E+02 -.233E+02 0.175E+02   0.175E+00 0.486E-01 0.436E-01   0.192E-02 0.428E-02 0.105E-02
   0.218E+02 -.148E+02 -.179E+02   -.222E+02 0.153E+02 0.183E+02   -.314E-01 -.113E+00 -.373E-01   0.235E-02 0.493E-03 -.377E-02
   0.331E+02 -.994E+01 0.395E+01   -.340E+02 0.103E+02 -.428E+01   -.887E-01 -.460E-01 0.447E-01   -.398E-03 -.240E-02 -.647E-02
   0.112E+02 -.989E+00 -.243E+02   -.113E+02 0.635E+00 0.245E+02   -.652E-02 0.716E-01 0.374E-01   0.645E-02 0.277E-03 -.527E-02
   0.102E+02 0.591E+00 -.149E+02   -.102E+02 -.896E+00 0.154E+02   0.566E-01 0.172E+00 -.259E-01   0.156E-03 -.340E-02 -.393E-02
   0.326E+01 -.949E+01 0.228E+01   -.358E+01 0.980E+01 -.240E+01   0.453E-01 -.123E+00 -.192E-01   -.811E-03 0.530E-02 -.297E-02
 -----------------------------------------------------------------------------------------------
   0.897E-04 -.422E-01 0.402E-01   -.157E-11 0.230E-11 0.129E-11   -.699E-03 0.531E-01 -.551E-01   0.106E-02 0.359E-02 0.110E-01
 
 
 POSITION                                       TOTAL-FORCE (eV/Angst)
 -----------------------------------------------------------------------------------
     11.30136      0.09974     13.45472         0.215529     -0.260625      0.080240
      7.62158     12.80666      4.49034        -0.178519     -0.421377     -0.373685
      5.72454     11.50574      2.22211         0.047273     -0.096148      0.299619
      6.69781     14.09374      2.21502        -0.494286     -0.647058      0.164065
      7.58950      8.98240      2.26507        -0.005595     -0.137131     -0.413042
      5.69357      7.67160      4.46984         0.021231      0.094773      0.242955
      6.63374     10.21851      8.95845         0.249897      0.181941      0.405479
      6.66299     10.21221      4.51315        -0.258526      0.434001     -0.500553
      7.59667     12.79849      9.03004         0.301126     -0.322725     -0.729919
      6.68836     14.02794      6.70145        -0.300646      0.275563      0.714910
      7.58264      8.95798      6.72205         0.253258     -0.025856      0.259664
      5.72358      7.66127      9.04988        -0.519760      0.215270     -0.722277
      6.65304     10.22475     13.46312         0.087939      0.034017      0.339227
      7.62647     12.77520     13.46902        -0.268493      0.254656     -0.034993
      5.72940     11.50046     11.22728        -0.112729      0.041322      0.001087
      5.71020     11.48567      6.73175         0.232080      0.014096     -0.143123
      6.63390     14.06865     11.23184         0.605174     -0.119334      0.131347
      5.68708      7.67609     -0.00407         0.392437     -0.078424     -0.069987
      6.63159      6.38784     11.23241         0.155967      0.028610      0.287901
      7.56261      5.14647      4.43213         0.015607     -0.166533      0.875603
      5.67532      3.88386      2.22673         0.174117     -0.450479      0.279660
      6.66238      6.41720      2.24093        -0.151406      0.153635     -0.185683
      7.53322      1.33884      2.23126         0.207960     -0.055472     -0.087673
      5.66795      0.05768      4.50060        -0.322221     -0.252636     -0.177096
      6.61457      2.60965      8.98648        -0.125440     -0.146480     -0.322349
      7.55323      1.36175     11.20339         0.296111     -0.461333      0.265928
      7.54355      5.13360      8.93304         0.290630      0.012796      0.451813
      6.61243      6.42727      6.76059        -0.023645     -0.126147     -0.564487
      7.58157      1.33975      6.73757        -0.481977     -0.116639     -0.002865
      5.72873     15.30596      8.99405        -0.096488      0.083587     -0.265591
      6.62333      2.61029     13.44655         0.131468     -0.299727      0.584970
      7.57381      5.16683      0.00637         0.486281     -0.120149     -0.258586
      5.64304      3.83671     11.26471         0.378496      0.251650     -0.499062
      5.65586      3.87684      6.72031         0.130639     -0.348245      0.130529
      6.60654      2.57731      4.47774        -0.067550      0.372964      0.069006
      7.57427      8.95736     11.22243         0.186618     -0.121926     -0.233526
      9.43705      2.63481      4.46584         0.306821     -0.306152      0.210769
     10.43596     12.78269      4.46967         0.205764      0.341714      0.155249
      8.53677     11.54495      2.23401        -0.063683     -0.358565      0.017126
      9.51610     14.03883      2.22307         0.017125      0.355607      0.030143
     10.41282      8.99310      2.20072         0.212358      0.069852      0.139523
      8.51836      7.68336      4.47913        -0.003162      0.421667     -0.084182
      9.47286     10.25330      8.99737        -0.074313     -0.025100     -0.474326
      9.47073     10.25258      4.46436         0.170894     -0.129646     -0.020459
     10.46160     12.79048      8.98050        -0.305522      0.126699     -0.280831
      9.49468     14.02950      6.71714         0.405107      0.308196      0.204613
     10.41181      9.00057      6.70079         0.040600     -0.137293      0.249702
      8.53777      7.66513      8.96330        -0.267180      0.402483      0.084321
      9.46736     10.24256     -0.01358         0.183422      0.301226     -0.112410
     10.43742     12.78550     13.44456         0.234784      0.121827      0.038966
      8.55442     11.49223     11.24478        -0.094206      0.310268     -0.130887
      8.53734     11.50271      6.71126         0.012906     -0.042024      0.525666
      8.50353      0.07921     -0.00253        -0.365807     -0.042808     -0.426362
      8.55106      7.73338     13.46177        -0.735297     -0.309823      0.378679
      9.42812      6.44667     11.20483         0.310933     -0.347452      0.006143
     10.38316      5.19303      4.46950         0.241203     -0.412866      0.124362
      8.51462      3.84775      2.26238        -0.130346      0.524022     -0.733982
      9.48363      6.46074      2.24731        -0.238766     -0.297404     -0.536599
     10.36647      1.35237      2.21011         0.259907      0.033815      0.407621
      8.55723     15.31254      4.49499         0.255874      0.468989     -0.306908
      9.47322      2.60896      8.96598        -0.295449      0.319549      0.148734
     10.42190      1.38374     11.22883        -0.541609     -0.205209     -0.210296
     10.39775      5.17226      8.93704        -0.074383      0.167252      0.318911
      9.42724      6.45211      6.70056         0.480276     -0.312942      0.186780
     10.38308      1.38793      6.72174         0.178611     -0.560937     -0.169448
      8.59079     15.32586      8.95852        -0.388392      0.157865      0.058138
      9.46764      2.60725      0.00002        -0.576808      0.436758     -0.385468
     10.39806      5.18484     -0.02984        -0.305641      0.066487     -0.230947
      8.47690      3.89578     11.20658         0.285421     -0.113025      0.187466
      8.50920      3.87204      6.70829         0.012330      0.209855      0.012884
      5.71487     15.29568     13.47376         0.268724      0.221389      0.094136
      4.76096      8.95748     11.25436        -0.214441     -0.184409     -0.242516
      3.85713     14.01373     11.24755        -0.382655      0.004170     -0.446779
      0.99382     10.17814      4.46846         0.002760     -0.122078      0.407158
      1.95677     12.72475      4.48249        -0.000010      0.133369      0.145747
     11.37155     11.54745      2.25068        -0.025316     -0.127820     -0.667190
      0.99277     14.01005      2.25958         0.051423     -0.160969     -0.251054
      1.93140      8.90182      2.23861         0.160573      0.270744     -0.004845
     11.34658      7.70013      4.44888         0.057855      0.447904      0.264424
     11.32372      7.74931     13.39792         0.656688     -0.330856      0.759589
      0.98593     10.15941      8.98681         0.035270      0.574801     -0.172394
      0.06544     11.46994      6.74404         0.014298     -0.346120     -0.063207
      1.03074     14.01417      6.73676        -0.467876     -0.215616     -0.015014
      1.92623      8.92751      6.73997         0.061775     -0.042077      0.037079
      0.04784      7.64039      9.00130        -0.321734     -0.199265     -0.358474
      0.99042     10.17473     13.47508         0.073605      0.387178      0.167040
      1.96469     12.76362     13.46779        -0.546369     -0.331671      0.196578
      1.97047     12.73359      8.98511        -0.017910      0.016054      0.146131
      0.07078     11.45102     11.21747         0.097790     -0.037832      0.359484
      1.89515      1.26756     11.24062        -0.096471      0.461094      0.064183
     11.32090      3.92082     11.18415         0.115817      0.085673      0.404861
      0.97655      2.53318      4.50320        -0.630996      0.407923     -0.105920
      1.89840      5.08852      4.47668         0.016518      0.261160      0.160424
     11.31526      3.93445      2.19439         0.251906     -0.189117      0.561988
      0.98055      6.38666      2.24348        -0.088595     -0.317743     -0.283766
      1.91053      1.26750      2.27330        -0.190878      0.381178     -0.507702
     11.30490      0.11407      4.46291        -0.021203     -0.191202      0.119740
      0.95221      6.37431     11.21024         0.297458     -0.230901      0.307305
      0.97465      2.54224      8.99661        -0.062145      0.106059     -0.001947
      0.03720      3.81535      6.78748        -0.268784      0.131276     -0.755711
      0.97449      6.36841      6.77599        -0.113049      0.029401     -0.423461
      1.91525      1.28607      6.73494        -0.703730      0.149410      0.059717
     11.30984      0.09910      8.95732         0.025238     -0.083542     -0.032526
      0.92208      2.54184      0.01932         0.666946      0.161679     -0.337369
      1.87269      5.09561     13.47033         0.570869      0.102596      0.115778
      1.93691      5.08745      8.99325        -0.348502      0.210727     -0.175083
      1.00906     14.01650     11.22535         0.084883     -0.302857      0.023715
      1.90619      8.92659     11.21591         0.488936     -0.203722      0.322392
      2.88472     15.28236     13.45485         0.157591      0.114904      0.648387
      4.81300     12.74021      4.47459        -0.272929      0.241109      0.155672
      2.87756     11.50687      2.21303         0.120027     -0.787570      0.335519
      3.80227     14.00438      2.25309         0.594396      0.385004     -0.084933
      4.76764      8.92572      2.22798        -0.182916      0.218587      0.175240
      2.85272      7.63735      4.52413         0.098387      0.285079     -0.654914
      3.79911     10.21948      8.97135         0.319267     -0.299401      0.352572
      3.83057     10.19819      4.50232        -0.067316      0.020118     -0.508237
      4.80630     12.73699      8.95892        -0.398636      0.376241      0.386601
      3.82837     14.01305      6.73301         0.433768      0.011454      0.041098
      4.77083      8.94544      6.71957        -0.121159     -0.214850      0.394873
      2.87170      7.64039      8.99982         0.279440      0.134266     -0.281781
      3.83911     10.20768     -0.00240        -0.265148     -0.131460      0.022896
      4.77190     12.74654      0.02153         0.217298      0.140108     -0.423367
      2.91173     11.46562     11.26338        -0.197818     -0.030487     -0.407162
      2.91173     11.47221      6.73919        -0.426644     -0.093760     -0.201248
      2.86809      7.64364     13.47247        -0.254191      0.020349     -0.013496
      4.70130      1.31349     11.26364         0.127832     -0.159943     -0.555296
      3.83242      6.37057     11.23184        -0.383479      0.171803      0.303175
      3.76121      2.55673      4.51797         0.595982      0.304941     -0.579498
      4.75404      5.13527      4.49583        -0.326026     -0.261255     -0.161198
      2.84597      3.85720      2.24772        -0.139577     -0.571270     -0.302701
      3.82104      6.36841      2.24968        -0.207222      0.277278     -0.122627
      4.72933      1.29683      2.23958        -0.256643      0.095637      0.123705
      2.81385      0.03223      4.51967         0.217292     -0.401689     -0.331436
      3.78811      2.57998      8.93843        -0.198042     -0.241597      0.646125
      4.72715      5.09212      9.00011         0.196323      0.560574     -0.402330
      2.82242      3.83045      6.70554         0.428039      0.356842      0.420126
      3.80711      6.41595      6.70528        -0.060849     -0.456561      0.824769
      4.70924      1.29725      6.74742         0.588663     -0.001122     -0.113358
      2.77328      0.05839      8.96697         0.919193     -0.589227      0.326965
      3.79679      2.55353     13.47894        -0.427268      0.348864      0.361097
      4.78924      5.10579      0.01432        -0.959533      0.281040     -0.293202
      2.84715      3.83963     11.21828        -0.163283     -0.282162      0.276638
      9.49400     14.08339     11.18408        -0.015585     -0.136379      0.522584
     10.41561      8.98351     11.20237        -0.273786      0.185709     -0.139823
 -----------------------------------------------------------------------------------
    total drift:                                0.000447      0.014483     -0.003859


--------------------------------------------------------------------------------------------------------



  FREE ENERGIE OF THE ION-ELECTRON SYSTEM (eV)
  ---------------------------------------------------
  free  energy   TOTEN  =     -1672.98703727 eV

  energy  without entropy=    -1673.01465730  energy(sigma->0) =    -1672.99624395
  enthalpy is  TOTEN    =     -1236.57811608 eV   P V=      436.40892119

 d Force =-0.3498690E+00[-0.407E+00,-0.293E+00]  d Energy =-0.3657021E+00 0.158E-01
 d Force =-0.1020813E+02[-0.119E+02,-0.856E+01]  d Ewald  =-0.3364512E+02 0.234E+02


--------------------------------------------------------------------------------------------------------


    POTLOK:  cpu time    0.0660: real time    0.0660


--------------------------------------------------------------------------------------------------------


           RANDOM_SEED =         596637458             8838                0
   IONSTEP:  cpu time    0.0005: real time    0.0006

  ENERGY OF THE ELECTRON-ION-THERMOSTAT SYSTEM (eV)
  ---------------------------------------------------
% ion-electron   TOTEN  =     -1236.578116  see above
  kinetic energy EKIN   =        18.677631
  kin. lattice  EKIN_LAT=         0.692547  (temperature 1019.41 K)
  nose potential ES     =         0.000000
  nose kinetic   EPS    =         0.000000
  ---------------------------------------------------
  total energy   ETOTAL =     -1217.207938 eV

  maximum distance moved by ions :      0.16E-02


 mean value of Nose-termostat <S>:     1.000 mean value of <T> :  1019.411
 mean temperature <T/S>/<1/S>  :  1019.411

    WAVPRE:  cpu time    1.3941: real time    1.3947
    FEWALD:  cpu time    0.0067: real time    0.0070
    GENKIN:  cpu time    0.0013: real time    0.0013

 real space projection operators:
  total allocation   :      41708.53 KBytes
  max/ min on nodes  :      20914.88      20793.66

    ORTHCH:  cpu time    0.9660: real time    0.9668
 Prediction of Wavefunctions ALPHA= 0.905 BETA= 0.078
    POTLOK:  cpu time    0.0642: real time    0.0642
    EDDIAG:  cpu time    1.1086: real time    1.1088
     LOOP+:  cpu time   67.0243: real time   67.0582
    4ORBIT:  cpu time    0.0000: real time    0.0000

 total amount of memory used by VASP MPI-rank0   140810. kBytes
=======================================================================

   base      :      30000. kBytes
   nonlr-proj:      30737. kBytes
   fftplans  :       5049. kBytes
   grid      :       6915. kBytes
   one-center:       1119. kBytes
   wavefun   :      66990. kBytes
 
  
  
 General timing and accounting informations for this job:
 ========================================================
  
                  Total CPU time used (sec):      666.895
                            User time (sec):      665.652
                          System time (sec):        1.243
                         Elapsed time (sec):      667.253
  
                   Maximum memory used (kb):      253628.
                   Average memory used (kb):           0.
  
                          Minor page faults:       116829
                          Major page faults:            0
                 Voluntary context switches:          500
